TITLE     = ""
VARIABLES = "X"
"Y"
"rho"
"U"
"V"
"E"
"UM"
"P"
"A"
"MA"
ZONE T="Streamtraces"
 STRANDID=0, SOLUTIONTIME=0
 Nodes=5014, Elements=5012, ZONETYPE=FELineSeg
 DATAPACKING=POINT
 DT=(DOUBLE DOUBLE SINGLE SINGLE SINGLE SINGLE SINGLE SINGLE SINGLE SINGLE )
 -7.496317861E+000 -2.348224182E-001 1.402439952E+000 7.727711201E-001 2.767650038E-002 2.925394773E+000 7.732665539E-001 1.002442718E+000 1.000349283E+000 7.729965448E-001
 -7.496312773E+000 -2.348226051E-001 1.402439952E+000 7.727711201E-001 2.767650038E-002 2.925394773E+000 7.732665539E-001 1.002442718E+000 1.000349283E+000 7.729965448E-001
 -7.496225097E+000 -2.348194651E-001 1.402439952E+000 7.727710605E-001 2.767650969E-002 2.925394773E+000 7.732664943E-001 1.002442718E+000 1.000349283E+000 7.729964852E-001
 -7.496049746E+000 -2.348131850E-001 1.402440071E+000 7.727709413E-001 2.767652459E-002 2.925395012E+000 7.732663751E-001 1.002442837E+000 1.000349283E+000 7.729963660E-001
 -7.495699045E+000 -2.348006247E-001 1.402440310E+000 7.727707028E-001 2.767655067E-002 2.925395489E+000 7.732661366E-001 1.002443075E+000 1.000349283E+000 7.729961276E-001
 -7.494296239E+000 -2.347503835E-001 1.402441263E+000 7.727698088E-001 2.767664567E-002 2.925397158E+000 7.732653022E-001 1.002444029E+000 1.000349522E+000 7.729951143E-001
 -7.483073834E+000 -2.343484472E-001 1.402448893E+000 7.727627158E-001 2.767741121E-002 2.925410986E+000 7.732582092E-001 1.002451777E+000 1.000350595E+000 7.729871869E-001
 -7.460629130E+000 -2.335445340E-001 1.402464032E+000 7.727485299E-001 2.767894231E-002 2.925438643E+000 7.732440829E-001 1.002467036E+000 1.000352859E+000 7.729713321E-001
 -7.438239385E+000 -2.327425302E-001 1.402479172E+000 7.727344036E-001 2.768046968E-002 2.925466299E+000 7.732300162E-001 1.002482414E+000 1.000355124E+000 7.729555368E-001
 -7.416109692E+000 -2.319497575E-001 1.402498960E+000 7.727156878E-001 2.768363804E-002 2.925501347E+000 7.732114792E-001 1.002502084E+000 1.000357866E+000 7.729349136E-001
 -7.393980554E+000 -2.311568870E-001 1.402520299E+000 7.726956606E-001 2.768729441E-002 2.925538778E+000 7.731915712E-001 1.002523065E+000 1.000360727E+000 7.729128003E-001
 -7.371851420E+000 -2.303638915E-001 1.402541637E+000 7.726756334E-001 2.769095078E-002 2.925576210E+000 7.731717229E-001 1.002544045E+000 1.000363588E+000 7.728906870E-001
 -7.349981681E+000 -2.295800619E-001 1.402555346E+000 7.726625204E-001 2.769524604E-002 2.925599098E+000 7.731587291E-001 1.002557158E+000 1.000365257E+000 7.728764415E-001
 -7.328112308E+000 -2.287961102E-001 1.402568579E+000 7.726497650E-001 2.769958787E-002 2.925621271E+000 7.731461525E-001 1.002570033E+000 1.000366926E+000 7.728626132E-001
 -7.306501891E+000 -2.280213074E-001 1.402581811E+000 7.726370692E-001 2.770389989E-002 2.925643444E+000 7.731336355E-001 1.002582669E+000 1.000368476E+000 7.728487849E-001
 -7.284891836E+000 -2.272463803E-001 1.402595043E+000 7.726238370E-001 2.770847827E-002 2.925667286E+000 7.731205225E-001 1.002596378E+000 1.000370622E+000 7.728341222E-001
 -7.263281786E+000 -2.264713120E-001 1.402608275E+000 7.726105452E-001 2.771305479E-002 2.925690889E+000 7.731074095E-001 1.002609968E+000 1.000372648E+000 7.728193998E-001
 -7.241929373E+000 -2.257053447E-001 1.402621388E+000 7.725975513E-001 2.771762945E-002 2.925714731E+000 7.730945945E-001 1.002623439E+000 1.000374675E+000 7.728050351E-001
 -7.220577314E+000 -2.249392483E-001 1.402634621E+000 7.725848556E-001 2.772239968E-002 2.925738573E+000 7.730820775E-001 1.002636790E+000 1.000376701E+000 7.727909684E-001
 -7.199225261E+000 -2.241730077E-001 1.402647972E+000 7.725722194E-001 2.772716805E-002 2.925762415E+000 7.730695605E-001 1.002650261E+000 1.000378609E+000 7.727769613E-001
 -7.178129056E+000 -2.234158055E-001 1.402661443E+000 7.725595832E-001 2.773196250E-002 2.925786495E+000 7.730571628E-001 1.002663612E+000 1.000380516E+000 7.727631330E-001
 -7.157033195E+000 -2.226584701E-001 1.402675509E+000 7.725470662E-001 2.773692086E-002 2.925811052E+000 7.730447650E-001 1.002677202E+000 1.000382185E+000 7.727494240E-001
 -7.135937339E+000 -2.219009873E-001 1.402689576E+000 7.725344896E-001 2.774187922E-002 2.925835609E+000 7.730324268E-001 1.002690792E+000 1.000383973E+000 7.727357149E-001
 -7.115097216E+000 -2.211525403E-001 1.402703047E+000 7.725219131E-001 2.774689160E-002 2.925859213E+000 7.730200291E-001 1.002703905E+000 1.000385642E+000 7.727220058E-001
 -7.094257434E+000 -2.204039563E-001 1.402716279E+000 7.725092769E-001 2.775203809E-002 2.925882101E+000 7.730076313E-001 1.002716899E+000 1.000387549E+000 7.727081776E-001
 -7.073417656E+000 -2.196552215E-001 1.402729392E+000 7.724966407E-001 2.775718272E-002 2.925904989E+000 7.729952335E-001 1.002729774E+000 1.000389338E+000 7.726944089E-001
 -7.052829488E+000 -2.189153763E-001 1.402742624E+000 7.724840045E-001 2.776239999E-002 2.925927877E+000 7.729827762E-001 1.002742767E+000 1.000391006E+000 7.726806402E-001
 -7.032241657E+000 -2.181753907E-001 1.402755857E+000 7.724713683E-001 2.776771784E-002 2.925950766E+000 7.729703188E-001 1.002755642E+000 1.000392795E+000 7.726668119E-001
 -7.011653832E+000 -2.174352515E-001 1.402768970E+000 7.724586725E-001 2.777303383E-002 2.925973415E+000 7.729578614E-001 1.002768636E+000 1.000394583E+000 7.726530433E-001
 -6.991318806E+000 -2.167040471E-001 1.402782798E+000 7.724457979E-001 2.777845226E-002 2.925997496E+000 7.729451656E-001 1.002782106E+000 1.000396371E+000 7.726389766E-001
 -6.970984119E+000 -2.159726990E-001 1.402796745E+000 7.724328637E-001 2.778394893E-002 2.926022053E+000 7.729324698E-001 1.002795696E+000 1.000398159E+000 7.726248503E-001
 -6.950649438E+000 -2.152411944E-001 1.402810693E+000 7.724199891E-001 2.778943628E-002 2.926046371E+000 7.729197145E-001 1.002809286E+000 1.000399947E+000 7.726107240E-001
 -6.930563622E+000 -2.145184854E-001 1.402824640E+000 7.724067569E-001 2.779506147E-002 2.926071644E+000 7.729067206E-001 1.002823353E+000 1.000401974E+000 7.725961208E-001
 -6.910478149E+000 -2.137956296E-001 1.402838588E+000 7.723935246E-001 2.780073322E-002 2.926096916E+000 7.728937268E-001 1.002837420E+000 1.000404000E+000 7.725815177E-001
 -6.890640099E+000 -2.130815216E-001 1.402852297E+000 7.723804712E-001 2.780631930E-002 2.926121950E+000 7.728808522E-001 1.002851367E+000 1.000406146E+000 7.725670338E-001
 -6.870802392E+000 -2.123672671E-001 1.402866244E+000 7.723668814E-001 2.781214938E-002 2.926147223E+000 7.728675008E-001 1.002865672E+000 1.000408173E+000 7.725520730E-001
 -6.850964690E+000 -2.116528502E-001 1.402880192E+000 7.723533511E-001 2.781799622E-002 2.926172256E+000 7.728541493E-001 1.002879858E+000 1.000410318E+000 7.725371718E-001
 -6.831371851E+000 -2.109470919E-001 1.402894020E+000 7.723399401E-001 2.782376483E-002 2.926197529E+000 7.728409171E-001 1.002894044E+000 1.000412464E+000 7.725222707E-001
 -6.811779359E+000 -2.102411842E-001 1.402907968E+000 7.723260522E-001 2.782977559E-002 2.926223516E+000 7.728272676E-001 1.002908707E+000 1.000414729E+000 7.725068331E-001
 -6.792186873E+000 -2.095351114E-001 1.402921796E+000 7.723121643E-001 2.783579938E-002 2.926249504E+000 7.728136778E-001 1.002923369E+000 1.000417113E+000 7.724913955E-001
 -6.772836751E+000 -2.088376105E-001 1.402935982E+000 7.722983360E-001 2.784174867E-002 2.926275730E+000 7.728000879E-001 1.002938032E+000 1.000419378E+000 7.724760175E-001
 -6.753486977E+000 -2.081399574E-001 1.402951479E+000 7.722843885E-001 2.784794196E-002 2.926303387E+000 7.727863193E-001 1.002953172E+000 1.000421524E+000 7.724606991E-001
 -6.734137210E+000 -2.074421367E-001 1.402966976E+000 7.722704411E-001 2.785413712E-002 2.926331043E+000 7.727726102E-001 1.002968311E+000 1.000423551E+000 7.724454403E-001
 -6.715029865E+000 -2.067528936E-001 1.402982473E+000 7.722564340E-001 2.786027640E-002 2.926358700E+000 7.727587819E-001 1.002983451E+000 1.000425577E+000 7.724300623E-001
 -6.695922868E+000 -2.060634955E-001 1.402997971E+000 7.722423077E-001 2.786666341E-002 2.926386118E+000 7.727449536E-001 1.002998710E+000 1.000427604E+000 7.724146247E-001
 -6.676815877E+000 -2.053739270E-001 1.403013468E+000 7.722282410E-001 2.787304856E-002 2.926413774E+000 7.727310658E-001 1.003013849E+000 1.000429749E+000 7.723991871E-001
 -6.657946253E+000 -2.046927571E-001 1.403028846E+000 7.722139955E-001 2.787939273E-002 2.926441193E+000 7.727171183E-001 1.003029108E+000 1.000431895E+000 7.723835111E-001
 -6.639076979E+000 -2.040114292E-001 1.403044224E+000 7.721995711E-001 2.788597532E-002 2.926469564E+000 7.727029324E-001 1.003044724E+000 1.000434160E+000 7.723675966E-001
 -6.620207711E+000 -2.033299280E-001 1.403059721E+000 7.721851468E-001 2.789255790E-002 2.926497936E+000 7.726888061E-001 1.003060341E+000 1.000436425E+000 7.723517418E-001
 -6.601574618E+000 -2.026567857E-001 1.403075099E+000 7.721707225E-001 2.789910696E-002 2.926526308E+000 7.726745605E-001 1.003076077E+000 1.000438809E+000 7.723357081E-001
 -6.582941875E+000 -2.019834826E-001 1.403090477E+000 7.721562386E-001 2.790588513E-002 2.926554441E+000 7.726603746E-001 1.003091693E+000 1.000441074E+000 7.723197341E-001
 -6.564309137E+000 -2.013100036E-001 1.403105855E+000 7.721418142E-001 2.791266330E-002 2.926582813E+000 7.726461291E-001 1.003107309E+000 1.000443339E+000 7.723037601E-001
 -6.545907769E+000 -2.006447137E-001 1.403120995E+000 7.721273899E-001 2.791942097E-002 2.926610708E+000 7.726319432E-001 1.003122807E+000 1.000445724E+000 7.722877264E-001
 -6.527506744E+000 -1.999792600E-001 1.403135419E+000 7.721130252E-001 2.792640217E-002 2.926638126E+000 7.726178765E-001 1.003138185E+000 1.000448108E+000 7.722718120E-001
 -6.509105726E+000 -1.993136279E-001 1.403149962E+000 7.720987201E-001 2.793338336E-002 2.926665306E+000 7.726038098E-001 1.003153443E+000 1.000450611E+000 7.722558379E-001
 -6.490936336E+000 -1.986561981E-001 1.403165102E+000 7.720842957E-001 2.794036083E-002 2.926692486E+000 7.725896835E-001 1.003168583E+000 1.000452757E+000 7.722400427E-001
 -6.472767284E+000 -1.979986015E-001 1.403180480E+000 7.720699906E-001 2.794756368E-002 2.926718712E+000 7.725756764E-001 1.003183365E+000 1.000454664E+000 7.722245455E-001
 -6.454598238E+000 -1.973408235E-001 1.403195739E+000 7.720556855E-001 2.795476653E-002 2.926745176E+000 7.725616097E-001 1.003198266E+000 1.000456572E+000 7.722090483E-001
 -6.436657200E+000 -1.966911206E-001 1.403211236E+000 7.720413208E-001 2.796196751E-002 2.926771879E+000 7.725474834E-001 1.003213167E+000 1.000458598E+000 7.721934319E-001
 -6.418716495E+000 -1.960412479E-001 1.403226495E+000 7.720270753E-001 2.796938457E-002 2.926798344E+000 7.725335360E-001 1.003227949E+000 1.000460505E+000 7.721779943E-001
 -6.400775796E+000 -1.953911911E-001 1.403241754E+000 7.720128298E-001 2.797680162E-002 2.926824570E+000 7.725195885E-001 1.003242612E+000 1.000462413E+000 7.721625566E-001
 -6.383060862E+000 -1.947491323E-001 1.403256536E+000 7.719984651E-001 2.798422612E-002 2.926851749E+000 7.725055218E-001 1.003257871E+000 1.000464678E+000 7.721467018E-001
 -6.365346255E+000 -1.941069008E-001 1.403270960E+000 7.719842196E-001 2.799186110E-002 2.926878929E+000 7.724915743E-001 1.003273010E+000 1.000467062E+000 7.721309066E-001
 -6.347631655E+000 -1.934644825E-001 1.403285384E+000 7.719700336E-001 2.799949795E-002 2.926905870E+000 7.724776268E-001 1.003288269E+000 1.000469565E+000 7.721151114E-001
 -6.330139511E+000 -1.928299466E-001 1.403300643E+000 7.719556093E-001 2.800713666E-002 2.926933050E+000 7.724635005E-001 1.003303409E+000 1.000471711E+000 7.720993161E-001
 -6.312647694E+000 -1.921952353E-001 1.403315783E+000 7.719412446E-001 2.801498771E-002 2.926960230E+000 7.724494338E-001 1.003318429E+000 1.000473738E+000 7.720836401E-001
 -6.295155883E+000 -1.915603346E-001 1.403331041E+000 7.719268799E-001 2.802283503E-002 2.926987171E+000 7.724353671E-001 1.003333569E+000 1.000475883E+000 7.720679641E-001
 -6.277884471E+000 -1.909332464E-001 1.403346300E+000 7.719123960E-001 2.803069167E-002 2.927014351E+000 7.724211812E-001 1.003348708E+000 1.000478029E+000 7.720521092E-001
 -6.260613382E+000 -1.903059800E-001 1.403361440E+000 7.718980312E-001 2.803875506E-002 2.927041292E+000 7.724070549E-001 1.003363848E+000 1.000480056E+000 7.720364332E-001
 -6.243342301E+000 -1.896785219E-001 1.403376698E+000 7.718836069E-001 2.804680914E-002 2.927068233E+000 7.723929882E-001 1.003378987E+000 1.000482202E+000 7.720207572E-001
 -6.226289246E+000 -1.890587947E-001 1.403391838E+000 7.718689442E-001 2.805488557E-002 2.927095413E+000 7.723786235E-001 1.003394246E+000 1.000484467E+000 7.720046639E-001
 -6.209236512E+000 -1.884388869E-001 1.403406858E+000 7.718544602E-001 2.806317247E-002 2.927122355E+000 7.723644376E-001 1.003409386E+000 1.000486612E+000 7.719888091E-001
 -6.192183787E+000 -1.878187847E-001 1.403421998E+000 7.718399167E-001 2.807144821E-002 2.927149296E+000 7.723501921E-001 1.003424525E+000 1.000488877E+000 7.719728947E-001
 -6.175347143E+000 -1.872063477E-001 1.403437853E+000 7.718250155E-001 2.807973698E-002 2.927176952E+000 7.723356485E-001 1.003440022E+000 1.000490904E+000 7.719567418E-001
 -6.158510823E+000 -1.865937277E-001 1.403453708E+000 7.718102336E-001 2.808823250E-002 2.927204609E+000 7.723211646E-001 1.003455520E+000 1.000492930E+000 7.719406486E-001
 -6.141674511E+000 -1.859809109E-001 1.403469682E+000 7.717953920E-001 2.809671499E-002 2.927232265E+000 7.723066211E-001 1.003470898E+000 1.000494957E+000 7.719245553E-001
 -6.125050975E+000 -1.853756444E-001 1.403485417E+000 7.717803121E-001 2.810520679E-002 2.927260399E+000 7.722918391E-001 1.003486753E+000 1.000497222E+000 7.719080448E-001
 -6.108427764E+000 -1.847701927E-001 1.403500438E+000 7.717652917E-001 2.811391279E-002 2.927288055E+000 7.722771764E-001 1.003502250E+000 1.000499606E+000 7.718914747E-001
 -6.091804560E+000 -1.841645421E-001 1.403515458E+000 7.717502117E-001 2.812260389E-002 2.927315712E+000 7.722623944E-001 1.003517985E+000 1.000501990E+000 7.718749046E-001
 -6.075391009E+000 -1.835663334E-001 1.403531194E+000 7.717348933E-001 2.813129500E-002 2.927344322E+000 7.722474337E-001 1.003533959E+000 1.000504494E+000 7.718580365E-001
 -6.058977783E+000 -1.829679374E-001 1.403547049E+000 7.717196345E-001 2.814021707E-002 2.927372694E+000 7.722325325E-001 1.003549933E+000 1.000506759E+000 7.718414068E-001
 -6.042564565E+000 -1.823693402E-001 1.403562784E+000 7.717043757E-001 2.814912423E-002 2.927401066E+000 7.722176313E-001 1.003565788E+000 1.000509024E+000 7.718247175E-001
 -6.026359059E+000 -1.817781198E-001 1.403579116E+000 7.716888189E-001 2.815800719E-002 2.927430153E+000 7.722023726E-001 1.003582120E+000 1.000511289E+000 7.718076706E-001
 -6.010153879E+000 -1.811867103E-001 1.403595686E+000 7.716732621E-001 2.816713043E-002 2.927459240E+000 7.721871734E-001 1.003598332E+000 1.000513554E+000 7.717908025E-001
 -5.993948707E+000 -1.805950977E-001 1.403612256E+000 7.716577649E-001 2.817624249E-002 2.927488327E+000 7.721719742E-001 1.003614664E+000 1.000515699E+000 7.717739344E-001
 -5.977947869E+000 -1.800107446E-001 1.403629303E+000 7.716419101E-001 2.818530798E-002 2.927517653E+000 7.721564770E-001 1.003631115E+000 1.000517845E+000 7.717567682E-001
 -5.961947359E+000 -1.794262007E-001 1.403646708E+000 7.716261148E-001 2.819463611E-002 2.927546740E+000 7.721410394E-001 1.003647327E+000 1.000519753E+000 7.717399001E-001
 -5.945946856E+000 -1.788414517E-001 1.403664112E+000 7.716102600E-001 2.820395678E-002 2.927575827E+000 7.721256018E-001 1.003663540E+000 1.000521660E+000 7.717229724E-001
 -5.930150253E+000 -1.782639524E-001 1.403681636E+000 7.715941668E-001 2.821320295E-002 2.927606106E+000 7.721098065E-001 1.003680468E+000 1.000523806E+000 7.717055678E-001
 -5.914353977E+000 -1.776862608E-001 1.403699040E+000 7.715781927E-001 2.822273597E-002 2.927637577E+000 7.720941901E-001 1.003697753E+000 1.000526309E+000 7.716880441E-001
 -5.898557709E+000 -1.771083624E-001 1.403716326E+000 7.715621591E-001 2.823226526E-002 2.927668810E+000 7.720785737E-001 1.003715038E+000 1.000528693E+000 7.716705203E-001
 -5.882961968E+000 -1.765375966E-001 1.403733611E+000 7.715457678E-001 2.824169025E-002 2.927700758E+000 7.720624804E-001 1.003732681E+000 1.000531316E+000 7.716524005E-001
 -5.867366559E+000 -1.759666374E-001 1.403750062E+000 7.715292573E-001 2.825140022E-002 2.927732944E+000 7.720463872E-001 1.003750563E+000 1.000534296E+000 7.716339827E-001
 -5.851771158E+000 -1.753954700E-001 1.403766513E+000 7.715128064E-001 2.826111950E-002 2.927764893E+000 7.720302939E-001 1.003768444E+000 1.000537395E+000 7.716155648E-001
 -5.836373403E+000 -1.748313363E-001 1.403783679E+000 7.714960575E-001 2.827071212E-002 2.927797079E+000 7.720138431E-001 1.003786325E+000 1.000540137E+000 7.715970278E-001
 -5.820975984E+000 -1.742670082E-001 1.403801084E+000 7.714791894E-001 2.828060463E-002 2.927828312E+000 7.719973922E-001 1.003803849E+000 1.000542760E+000 7.715785503E-001
 -5.805578572E+000 -1.737024703E-001 1.403818250E+000 7.714623809E-001 2.829052135E-002 2.927859306E+000 7.719809413E-001 1.003821373E+000 1.000545382E+000 7.715601325E-001
 -5.790377115E+000 -1.731449109E-001 1.403836131E+000 7.714453936E-001 2.830028720E-002 2.927891493E+000 7.719643116E-001 1.003839254E+000 1.000548005E+000 7.715415359E-001
 -5.775175993E+000 -1.725871560E-001 1.403854251E+000 7.714282870E-001 2.831036411E-002 2.927924395E+000 7.719476223E-001 1.003857493E+000 1.000550628E+000 7.715228200E-001
 -5.759974879E+000 -1.720291900E-001 1.403872252E+000 7.714112997E-001 2.832048014E-002 2.927957058E+000 7.719309926E-001 1.003875613E+000 1.000553250E+000 7.715041637E-001
 -5.744966596E+000 -1.714780948E-001 1.403890610E+000 7.713941336E-001 2.833042294E-002 2.927990198E+000 7.719141841E-001 1.003893971E+000 1.000555754E+000 7.714853883E-001
 -5.729958649E+000 -1.709268030E-001 1.403909326E+000 7.713767886E-001 2.834068052E-002 2.928023815E+000 7.718971968E-001 1.003912568E+000 1.000558376E+000 7.714664340E-001
 -5.714950709E+000 -1.703752990E-001 1.403928161E+000 7.713595033E-001 2.835099027E-002 2.928057432E+000 7.718802691E-001 1.003931046E+000 1.000560880E+000 7.714475989E-001
 -5.700133973E+000 -1.698306129E-001 1.403946877E+000 7.713420987E-001 2.836110443E-002 2.928090811E+000 7.718632817E-001 1.003949523E+000 1.000563383E+000 7.714286447E-001
 -5.685317574E+000 -1.692857295E-001 1.403965831E+000 7.713245153E-001 2.837152965E-002 2.928123474E+000 7.718461156E-001 1.003967881E+000 1.000565886E+000 7.714096308E-001
 -5.670501181E+000 -1.687406331E-001 1.403984547E+000 7.713069916E-001 2.838202007E-002 2.928155899E+000 7.718290687E-001 1.003986001E+000 1.000568271E+000 7.713906765E-001
 -5.655873001E+000 -1.682022520E-001 1.404003382E+000 7.712894678E-001 2.839229628E-002 2.928188801E+000 7.718119025E-001 1.004004359E+000 1.000570655E+000 7.713717222E-001
 -5.641245158E+000 -1.676636730E-001 1.404022336E+000 7.712715864E-001 2.840287797E-002 2.928223133E+000 7.717943788E-001 1.004023433E+000 1.000573397E+000 7.713520527E-001
 -5.626617321E+000 -1.671248803E-001 1.404040933E+000 7.712538242E-001 2.841354907E-002 2.928257227E+000 7.717770338E-001 1.004042387E+000 1.000576138E+000 7.713326216E-001
 -5.611989493E+000 -1.665858741E-001 1.404059887E+000 7.712358832E-001 2.842411585E-002 2.928291798E+000 7.717594504E-001 1.004061580E+000 1.000579000E+000 7.713128924E-001
 -5.597548243E+000 -1.660535308E-001 1.404079437E+000 7.712175846E-001 2.843485773E-002 2.928326845E+000 7.717415690E-001 1.004081011E+000 1.000581741E+000 7.712928653E-001
 -5.583107334E+000 -1.655209854E-001 1.404098749E+000 7.711994648E-001 2.844570950E-002 2.928361416E+000 7.717238665E-001 1.004100204E+000 1.000584483E+000 7.712731361E-001
 -5.568666435E+000 -1.649882254E-001 1.404118180E+000 7.711811662E-001 2.845647000E-002 2.928396702E+000 7.717060447E-001 1.004119635E+000 1.000587225E+000 7.712531686E-001
 -5.554409176E+000 -1.644620278E-001 1.404137611E+000 7.711626291E-001 2.846734971E-002 2.928431749E+000 7.716878653E-001 1.004139304E+000 1.000590086E+000 7.712328434E-001
 -5.540152258E+000 -1.639356275E-001 1.404157043E+000 7.711442709E-001 2.847839706E-002 2.928466320E+000 7.716699243E-001 1.004158616E+000 1.000592709E+000 7.712128162E-001
 -5.525895350E+000 -1.634090115E-001 1.404176474E+000 7.711257339E-001 2.848936431E-002 2.928501368E+000 7.716518641E-001 1.004178047E+000 1.000595570E+000 7.711925507E-001
 -5.511820516E+000 -1.628889078E-001 1.404196024E+000 7.711069584E-001 2.850036323E-002 2.928537607E+000 7.716334462E-001 1.004198313E+000 1.000598550E+000 7.711718678E-001
 -5.497746025E+000 -1.623686012E-001 1.404215336E+000 7.710883021E-001 2.851159684E-002 2.928573847E+000 7.716152072E-001 1.004218340E+000 1.000601649E+000 7.711512446E-001
 -5.483671542E+000 -1.618480778E-001 1.404234767E+000 7.710695863E-001 2.852276713E-002 2.928610325E+000 7.715969086E-001 1.004238486E+000 1.000604749E+000 7.711305022E-001
 -5.469776384E+000 -1.613339731E-001 1.404255033E+000 7.710505128E-001 2.853388712E-002 2.928647280E+000 7.715782523E-001 1.004258990E+000 1.000607848E+000 7.711095810E-001
 -5.455881570E+000 -1.608196656E-001 1.404275060E+000 7.710314989E-001 2.854527347E-002 2.928684235E+000 7.715597153E-001 1.004279494E+000 1.000610828E+000 7.710886598E-001
 -5.441986764E+000 -1.603051407E-001 1.404295206E+000 7.710124254E-001 2.855663374E-002 2.928721428E+000 7.715410590E-001 1.004299998E+000 1.000613809E+000 7.710676789E-001
 -5.428269659E+000 -1.597969823E-001 1.404315829E+000 7.709931135E-001 2.856788598E-002 2.928758383E+000 7.715222239E-001 1.004320502E+000 1.000616789E+000 7.710465789E-001
 -5.414552898E+000 -1.592886212E-001 1.404336691E+000 7.709738016E-001 2.857942879E-002 2.928795338E+000 7.715033293E-001 1.004341006E+000 1.000619531E+000 7.710255980E-001
 -5.400836144E+000 -1.587800420E-001 1.404357433E+000 7.709544897E-001 2.859099396E-002 2.928832293E+000 7.714844346E-001 1.004361391E+000 1.000622392E+000 7.710046172E-001
 -5.387294407E+000 -1.582777377E-001 1.404378295E+000 7.709349990E-001 2.860238217E-002 2.928869486E+000 7.714654207E-001 1.004382133E+000 1.000625253E+000 7.709833980E-001
 -5.373753012E+000 -1.577752306E-001 1.404399276E+000 7.709154487E-001 2.861409076E-002 2.928907156E+000 7.714463472E-001 1.004402995E+000 1.000628114E+000 7.709620595E-001
 -5.360211624E+000 -1.572725048E-001 1.404419899E+000 7.708960176E-001 2.862587385E-002 2.928944588E+000 7.714273930E-001 1.004423738E+000 1.000631094E+000 7.709408402E-001
 -5.346843691E+000 -1.567760037E-001 1.404440999E+000 7.708764672E-001 2.863739990E-002 2.928982258E+000 7.714082003E-001 1.004444599E+000 1.000633955E+000 7.709194422E-001
 -5.333476100E+000 -1.562792998E-001 1.404462457E+000 7.708564997E-001 2.864927240E-002 2.929020643E+000 7.713887095E-001 1.004465818E+000 1.000636935E+000 7.708977461E-001
 -5.320108516E+000 -1.557823765E-001 1.404483914E+000 7.708367109E-001 2.866125293E-002 2.929058552E+000 7.713693976E-001 1.004486918E+000 1.000639796E+000 7.708762288E-001
 -5.306911576E+000 -1.552915815E-001 1.404505134E+000 7.708169222E-001 2.867294103E-002 2.929096460E+000 7.713500261E-001 1.004507899E+000 1.000642657E+000 7.708547115E-001
 -5.293714981E+000 -1.548005836E-001 1.404526353E+000 7.707965374E-001 2.868496254E-002 2.929134846E+000 7.713301182E-001 1.004529357E+000 1.000645757E+000 7.708323002E-001
 -5.280518391E+000 -1.543093659E-001 1.404547691E+000 7.707764506E-001 2.869712934E-002 2.929172993E+000 7.713104486E-001 1.004550576E+000 1.000648737E+000 7.708104253E-001
 -5.267321811E+000 -1.538179285E-001 1.404568911E+000 7.707561255E-001 2.870917134E-002 2.929211378E+000 7.712906003E-001 1.004572034E+000 1.000651836E+000 7.707881331E-001
 -5.254293304E+000 -1.533325329E-001 1.404590249E+000 7.707355618E-001 2.872129530E-002 2.929250717E+000 7.712705135E-001 1.004593968E+000 1.000655174E+000 7.707654834E-001
 -5.241265142E+000 -1.528469304E-001 1.404610753E+000 7.707152963E-001 2.873365767E-002 2.929289579E+000 7.712507248E-001 1.004615545E+000 1.000658631E+000 7.707430124E-001
 -5.228236990E+000 -1.523611072E-001 1.404631853E+000 7.706947923E-001 2.874591947E-002 2.929328680E+000 7.712306976E-001 1.004637361E+000 1.000662088E+000 7.707204223E-001
 -5.215376728E+000 -1.518813274E-001 1.404654145E+000 7.706740499E-001 2.875816822E-002 2.929368973E+000 7.712104321E-001 1.004659653E+000 1.000665188E+000 7.706977129E-001
 -5.202516811E+000 -1.514013410E-001 1.404676318E+000 7.706533670E-001 2.877069078E-002 2.929409266E+000 7.711902261E-001 1.004681826E+000 1.000668287E+000 7.706751227E-001
 -5.189656904E+000 -1.509211332E-001 1.404698730E+000 7.706326246E-001 2.878317982E-002 2.929449558E+000 7.711699605E-001 1.004703999E+000 1.000671506E+000 7.706524730E-001
 -5.176961130E+000 -1.504468368E-001 1.404721498E+000 7.706115842E-001 2.879555337E-002 2.929490089E+000 7.711493969E-001 1.004726410E+000 1.000674486E+000 7.706295848E-001
 -5.164265706E+000 -1.499723341E-001 1.404744267E+000 7.705903053E-001 2.880823240E-002 2.929530144E+000 7.711286545E-001 1.004748821E+000 1.000677586E+000 7.706065178E-001
 -5.151570289E+000 -1.494976094E-001 1.404767036E+000 7.705691457E-001 2.882095426E-002 2.929570198E+000 7.711079717E-001 1.004771233E+000 1.000680566E+000 7.705835700E-001
 -5.139038635E+000 -1.490287903E-001 1.404789686E+000 7.705478072E-001 2.883345075E-002 2.929610491E+000 7.710871100E-001 1.004793644E+000 1.000683665E+000 7.705603838E-001
 -5.126507330E+000 -1.485597652E-001 1.404812455E+000 7.705262899E-001 2.884628251E-002 2.929650784E+000 7.710660696E-001 1.004816175E+000 1.000686765E+000 7.705368996E-001
 -5.113976031E+000 -1.480905177E-001 1.404835105E+000 7.705049515E-001 2.885923721E-002 2.929690838E+000 7.710452080E-001 1.004838347E+000 1.000689745E+000 7.705137730E-001
 -5.101604807E+000 -1.476270461E-001 1.404857755E+000 7.704834938E-001 2.887185849E-002 2.929731131E+000 7.710242867E-001 1.004860759E+000 1.000692844E+000 7.704904079E-001
 -5.089233932E+000 -1.471633690E-001 1.404881239E+000 7.704616189E-001 2.888484113E-002 2.929772615E+000 7.710028291E-001 1.004883885E+000 1.000695944E+000 7.704666257E-001
 -5.076863062E+000 -1.466994692E-001 1.404904604E+000 7.704399824E-001 2.889800072E-002 2.929813862E+000 7.709817290E-001 1.004906774E+000 1.000699043E+000 7.704431415E-001
 -5.064492203E+000 -1.462353467E-001 1.404928088E+000 7.704181075E-001 2.891100012E-002 2.929855585E+000 7.709603906E-001 1.004929900E+000 1.000702262E+000 7.704194188E-001
 -5.052281354E+000 -1.457770073E-001 1.404951215E+000 7.703958750E-001 2.892410010E-002 2.929897785E+000 7.709386349E-001 1.004953504E+000 1.000705719E+000 7.703949213E-001
 -5.040070855E+000 -1.453184583E-001 1.404973745E+000 7.703738213E-001 2.893745340E-002 2.929939985E+000 7.709171176E-001 1.004976988E+000 1.000709414E+000 7.703706622E-001
 -5.027860366E+000 -1.448596856E-001 1.404996634E+000 7.703515887E-001 2.895070426E-002 2.929982185E+000 7.708954215E-001 1.005000591E+000 1.000712991E+000 7.703461647E-001
 -5.015806074E+000 -1.444065613E-001 1.405019999E+000 7.703291178E-001 2.896392159E-002 2.930024862E+000 7.708734870E-001 1.005024552E+000 1.000716567E+000 7.703214884E-001
 -5.003752133E+000 -1.439532280E-001 1.405043483E+000 7.703065872E-001 2.897742018E-002 2.930067778E+000 7.708514929E-001 1.005048394E+000 1.000720143E+000 7.702968121E-001
 -4.991698201E+000 -1.434996705E-001 1.405066967E+000 7.702841163E-001 2.899091877E-002 2.930110455E+000 7.708294988E-001 1.005072236E+000 1.000723600E+000 7.702721357E-001
 -4.979799214E+000 -1.430517229E-001 1.405090928E+000 7.702614069E-001 2.900424600E-002 2.930153608E+000 7.708073258E-001 1.005096316E+000 1.000727057E+000 7.702473402E-001
 -4.967900580E+000 -1.426035669E-001 1.405115724E+000 7.702384591E-001 2.901789546E-002 2.930197239E+000 7.707849145E-001 1.005120516E+000 1.000730276E+000 7.702224851E-001
 -4.956001953E+000 -1.421551862E-001 1.405140519E+000 7.702156901E-001 2.903165482E-002 2.930240631E+000 7.707626820E-001 1.005144596E+000 1.000733376E+000 7.701978087E-001
 -4.944256837E+000 -1.417123698E-001 1.405165076E+000 7.701928020E-001 2.904508635E-002 2.930284262E+000 7.707403302E-001 1.005168796E+000 1.000736713E+000 7.701729536E-001
 -4.932512074E+000 -1.412693459E-001 1.405189872E+000 7.701694369E-001 2.905888297E-002 2.930329084E+000 7.707174420E-001 1.005193591E+000 1.000740290E+000 7.701473832E-001
 -4.920767316E+000 -1.408260970E-001 1.405214548E+000 7.701463699E-001 2.907286771E-002 2.930372953E+000 7.706949711E-001 1.005218029E+000 1.000743628E+000 7.701222897E-001
 -4.909022570E+000 -1.403826233E-001 1.405239224E+000 7.701230049E-001 2.908666432E-002 2.930417776E+000 7.706721425E-001 1.005242944E+000 1.000747204E+000 7.700967193E-001
 -4.897427823E+000 -1.399445914E-001 1.405264258E+000 7.700992823E-001 2.910059504E-002 2.930463314E+000 7.706489563E-001 1.005268097E+000 1.000750899E+000 7.700707316E-001
 -4.885833432E+000 -1.395063479E-001 1.405288935E+000 7.700757980E-001 2.911476977E-002 2.930507898E+000 7.706260085E-001 1.005293012E+000 1.000754476E+000 7.700450420E-001
 -4.874239051E+000 -1.390678788E-001 1.405313849E+000 7.700521350E-001 2.912883833E-002 2.930553198E+000 7.706028819E-001 1.005318046E+000 1.000758171E+000 7.700191140E-001
 -4.862794428E+000 -1.386348508E-001 1.405339241E+000 7.700281739E-001 2.914287150E-002 2.930598736E+000 7.705794573E-001 1.005343437E+000 1.000761747E+000 7.699930072E-001
 -4.851350161E+000 -1.382016122E-001 1.405364752E+000 7.700040936E-001 2.915719710E-002 2.930644035E+000 7.705559134E-001 1.005368710E+000 1.000765204E+000 7.699667811E-001
 -4.839905903E+000 -1.377681473E-001 1.405390143E+000 7.699800730E-001 2.917153947E-002 2.930689573E+000 7.705324888E-001 1.005393982E+000 1.000768661E+000 7.699406147E-001