TITLE     = ""
VARIABLES = "X"
"Y"
"rho"
"U"
"V"
"E"
"UM"
"P"
"A"
"MA"
ZONE T="Streamtraces"
 STRANDID=0, SOLUTIONTIME=0
 Nodes=4966, Elements=4964, ZONETYPE=FELineSeg
 DATAPACKING=POINT
 DT=(DOUBLE DOUBLE SINGLE SINGLE SINGLE SINGLE SINGLE SINGLE SINGLE SINGLE )
 -7.496411343E+000 -2.308498581E-001 1.402518988E+000 7.726972103E-001 2.767843753E-002 2.925528049E+000 7.731928229E-001 1.002518296E+000 1.000358939E+000 7.729154229E-001
 -7.496400673E+000 -2.308497303E-001 1.402518868E+000 7.726972699E-001 2.767843939E-002 2.925527811E+000 7.731928825E-001 1.002518296E+000 1.000358939E+000 7.729154825E-001
 -7.496312998E+000 -2.308465897E-001 1.402518511E+000 7.726975083E-001 2.767845616E-002 2.925527096E+000 7.731931210E-001 1.002517939E+000 1.000358820E+000 7.729157209E-001
 -7.493507398E+000 -2.307460911E-001 1.402507663E+000 7.727050781E-001 2.767894790E-002 2.925504684E+000 7.732006907E-001 1.002506971E+000 1.000357270E+000 7.729245424E-001
 -7.471063368E+000 -2.299421002E-001 1.402420521E+000 7.727652192E-001 2.768295258E-002 2.925326109E+000 7.732609510E-001 1.002419829E+000 1.000344872E+000 7.729943991E-001
 -7.448619339E+000 -2.291380556E-001 1.402333379E+000 7.728254199E-001 2.768695541E-002 2.925147295E+000 7.733212113E-001 1.002332687E+000 1.000332355E+000 7.730643153E-001
 -7.426431694E+000 -2.283431347E-001 1.402211308E+000 7.729099989E-001 2.769239433E-002 2.924897194E+000 7.734058499E-001 1.002210617E+000 1.000314951E+000 7.731623650E-001
 -7.404244845E+000 -2.275481526E-001 1.402009964E+000 7.730496526E-001 2.770124562E-002 2.924485683E+000 7.735458016E-001 1.002009392E+000 1.000286341E+000 7.733243704E-001
 -7.382058000E+000 -2.267530602E-001 1.401808619E+000 7.731893659E-001 2.771009691E-002 2.924074411E+000 7.736856937E-001 1.001808167E+000 1.000257850E+000 7.734863758E-001
 -7.360128169E+000 -2.259670686E-001 1.401596665E+000 7.733366489E-001 2.771925740E-002 2.923641920E+000 7.738332748E-001 1.001596570E+000 1.000227809E+000 7.736570835E-001
 -7.338198479E+000 -2.251809688E-001 1.401371121E+000 7.734935880E-001 2.772899531E-002 2.923182726E+000 7.739903927E-001 1.001371741E+000 1.000195980E+000 7.738387585E-001
 -7.316268792E+000 -2.243947524E-001 1.401145458E+000 7.736504674E-001 2.773873508E-002 2.922723770E+000 7.741475701E-001 1.001146913E+000 1.000164151E+000 7.740204930E-001
 -7.294596703E+000 -2.236176537E-001 1.400926948E+000 7.738029361E-001 2.774848789E-002 2.922278166E+000 7.743002772E-001 1.000928640E+000 1.000133157E+000 7.741972208E-001
 -7.272924598E+000 -2.228404313E-001 1.400710821E+000 7.739539146E-001 2.775840461E-002 2.921837091E+000 7.744515538E-001 1.000712514E+000 1.000102282E+000 7.743723989E-001
 -7.251252497E+000 -2.220630832E-001 1.400494814E+000 7.741049528E-001 2.776831947E-002 2.921396017E+000 7.746028304E-001 1.000496387E+000 1.000071406E+000 7.745475173E-001
 -7.229837773E+000 -2.212948381E-001 1.400288939E+000 7.742490172E-001 2.777829021E-002 2.920976400E+000 7.747471333E-001 1.000290632E+000 1.000041962E+000 7.747145891E-001
 -7.208423038E+000 -2.205264580E-001 1.400084853E+000 7.743918896E-001 2.778834663E-002 2.920560122E+000 7.748902440E-001 1.000086546E+000 1.000012875E+000 7.748802900E-001
 -7.187008308E+000 -2.197579418E-001 1.399880767E+000 7.745347619E-001 2.779840305E-002 2.920144081E+000 7.750334144E-001 9.998824000E-001 9.999837875E-001 7.750459909E-001
 -7.165850502E+000 -2.189985055E-001 1.399689317E+000 7.746688128E-001 2.780856565E-002 2.919753075E+000 7.751677632E-001 9.996908307E-001 9.999563098E-001 7.752016187E-001
 -7.144692699E+000 -2.182389227E-001 1.399497986E+000 7.748026848E-001 2.781875245E-002 2.919362783E+000 7.753019333E-001 9.994993806E-001 9.999289513E-001 7.753570676E-001
 -7.123790469E+000 -2.174883701E-001 1.399310470E+000 7.749339938E-001 2.782884426E-002 2.918979883E+000 7.754334807E-001 9.993116856E-001 9.999020696E-001 7.755095363E-001
 -7.102952185E+000 -2.167399633E-001 1.399133325E+000 7.750580311E-001 2.783910930E-002 2.918617725E+000 7.755578160E-001 9.991341829E-001 9.998764992E-001 7.756536603E-001
 -7.082113907E+000 -2.159914004E-001 1.398956299E+000 7.751820683E-001 2.784937434E-002 2.918255806E+000 7.756821513E-001 9.989567399E-001 9.998509884E-001 7.757977843E-001
 -7.061527500E+000 -2.152517300E-001 1.398784757E+000 7.753023505E-001 2.785959095E-002 2.917905092E+000 7.758027315E-001 9.987847209E-001 9.998262525E-001 7.759375572E-001
 -7.040941011E+000 -2.145118948E-001 1.398622870E+000 7.754159570E-001 2.786997333E-002 2.917574644E+000 7.759166360E-001 9.986225367E-001 9.998028874E-001 7.760696411E-001
 -7.020354527E+000 -2.137718925E-001 1.398461103E+000 7.755295038E-001 2.788035572E-002 2.917243958E+000 7.760305405E-001 9.984604120E-001 9.997795820E-001 7.762016654E-001
 -7.000021093E+000 -2.130408190E-001 1.398306251E+000 7.756381631E-001 2.789072134E-002 2.916927814E+000 7.761394978E-001 9.983053207E-001 9.997572899E-001 7.763279080E-001
 -6.979687586E+000 -2.123095694E-001 1.398159623E+000 7.757409215E-001 2.790119685E-002 2.916629553E+000 7.762424946E-001 9.981588721E-001 9.997363687E-001 7.764472365E-001
 -6.959354086E+000 -2.115781423E-001 1.398012996E+000 7.758436203E-001 2.791167423E-002 2.916331053E+000 7.763454914E-001 9.980124831E-001 9.997154474E-001 7.765665054E-001
 -6.939269693E+000 -2.108554974E-001 1.397874713E+000 7.759402394E-001 2.792215906E-002 2.916049957E+000 7.764424682E-001 9.978746772E-001 9.996958971E-001 7.766786814E-001
 -6.919185240E+000 -2.101326659E-001 1.397743106E+000 7.760319114E-001 2.793270722E-002 2.915783644E+000 7.765344381E-001 9.977439642E-001 9.996774197E-001 7.767849565E-001
 -6.899100795E+000 -2.094096469E-001 1.397611618E+000 7.761235237E-001 2.794325538E-002 2.915517092E+000 7.766263485E-001 9.976133108E-001 9.996590018E-001 7.768912911E-001
 -6.879263998E+000 -2.086953539E-001 1.397491336E+000 7.762076855E-001 2.795384452E-002 2.915271997E+000 7.767108679E-001 9.974930882E-001 9.996417761E-001 7.769891620E-001
 -6.859427155E+000 -2.079808637E-001 1.397377372E+000 7.762876749E-001 2.796446346E-002 2.915039063E+000 7.767912149E-001 9.973788261E-001 9.996252656E-001 7.770823836E-001
 -6.839590318E+000 -2.072661760E-001 1.397263527E+000 7.763676047E-001 2.797508240E-002 2.914805889E+000 7.768715024E-001 9.972645044E-001 9.996086955E-001 7.771756053E-001
 -6.819998564E+000 -2.065601184E-001 1.397161722E+000 7.764390111E-001 2.798575163E-002 2.914597750E+000 7.769432068E-001 9.971624017E-001 9.995939732E-001 7.772588134E-001
 -6.800406776E+000 -2.058538539E-001 1.397064447E+000 7.765071392E-001 2.799641714E-002 2.914399147E+000 7.770116329E-001 9.970648885E-001 9.995798469E-001 7.773382664E-001
 -6.780814995E+000 -2.051473825E-001 1.396967292E+000 7.765752673E-001 2.800708264E-002 2.914200306E+000 7.770801187E-001 9.969673753E-001 9.995657802E-001 7.774177194E-001
 -6.761465793E+000 -2.044494489E-001 1.396883488E+000 7.766337395E-001 2.801779658E-002 2.914029837E+000 7.771389484E-001 9.968837500E-001 9.995537996E-001 7.774858475E-001
 -6.742116571E+000 -2.037512997E-001 1.396802902E+000 7.766900063E-001 2.802847885E-002 2.913866043E+000 7.771955729E-001 9.968034029E-001 9.995423555E-001 7.775514126E-001
 -6.722767356E+000 -2.030529351E-001 1.396722198E+000 7.767462730E-001 2.803916112E-002 2.913702011E+000 7.772521973E-001 9.967229962E-001 9.995309114E-001 7.776169181E-001
 -6.703660768E+000 -2.023631095E-001 1.396656394E+000 7.767918706E-001 2.804989554E-002 2.913568497E+000 7.772981524E-001 9.966575503E-001 9.995216727E-001 7.776700854E-001
 -6.684554172E+000 -2.016730600E-001 1.396592140E+000 7.768361568E-001 2.806057967E-002 2.913438320E+000 7.773427963E-001 9.965939522E-001 9.995127320E-001 7.777217031E-001
 -6.665447584E+000 -2.009827871E-001 1.396528125E+000 7.768803835E-001 2.807128802E-002 2.913308620E+000 7.773873806E-001 9.965303540E-001 9.995037913E-001 7.777733207E-001
 -6.646578563E+000 -2.003008706E-001 1.396480560E+000 7.769133449E-001 2.808200195E-002 2.913210154E+000 7.774206996E-001 9.964823127E-001 9.994966984E-001 7.778121829E-001
 -6.627709545E+000 -1.996187232E-001 1.396433711E+000 7.769458890E-001 2.809267491E-002 2.913113117E+000 7.774536014E-001 9.964348078E-001 9.994896650E-001 7.778506279E-001
 -6.609077036E+000 -1.989448991E-001 1.396387696E+000 7.769777775E-001 2.810325660E-002 2.913017988E+000 7.774858475E-001 9.963881969E-001 9.994828105E-001 7.778882384E-001
 -6.590444407E+000 -1.982708388E-001 1.396357179E+000 7.769989967E-001 2.811394073E-002 2.912953615E+000 7.775074840E-001 9.963567853E-001 9.994779229E-001 7.779136300E-001
 -6.571811788E+000 -1.975965413E-001 1.396326661E+000 7.770203352E-001 2.812459506E-002 2.912889004E+000 7.775291204E-001 9.963253140E-001 9.994730353E-001 7.779390812E-001
 -6.553410864E+000 -1.969303952E-001 1.396297455E+000 7.770404816E-001 2.813517116E-002 2.912827492E+000 7.775496840E-001 9.962953329E-001 9.994684458E-001 7.779632211E-001
 -6.535009833E+000 -1.962640070E-001 1.396280646E+000 7.770509124E-001 2.814580873E-002 2.912793875E+000 7.775604725E-001 9.962792397E-001 9.994664192E-001 7.779755592E-001
 -6.516608811E+000 -1.955973765E-001 1.396263719E+000 7.770613432E-001 2.815642767E-002 2.912760258E+000 7.775712609E-001 9.962630868E-001 9.994643331E-001 7.779880166E-001
 -6.498439735E+000 -1.949389097E-001 1.396248937E+000 7.770703435E-001 2.816697210E-002 2.912730455E+000 7.775806785E-001 9.962489605E-001 9.994626045E-001 7.779988050E-001
 -6.480270565E+000 -1.942801964E-001 1.396246552E+000 7.770705819E-001 2.817755193E-002 2.912726641E+000 7.775812745E-001 9.962473512E-001 9.994626045E-001 7.779993415E-001
 -6.462101405E+000 -1.936212365E-001 1.396244168E+000 7.770708203E-001 2.818812057E-002 2.912722588E+000 7.775819302E-001 9.962458014E-001 9.994626641E-001 7.779999375E-001
 -6.444160564E+000 -1.929703136E-001 1.396244049E+000 7.770694494E-001 2.819861472E-002 2.912722826E+000 7.775809765E-001 9.962463379E-001 9.994629622E-001 7.779986858E-001
 -6.426219845E+000 -1.923191483E-001 1.396255255E+000 7.770602107E-001 2.820912562E-002 2.912745237E+000 7.775720954E-001 9.962577224E-001 9.994646907E-001 7.779885530E-001
 -6.408279135E+000 -1.916677329E-001 1.396266341E+000 7.770510316E-001 2.821962908E-002 2.912767410E+000 7.775632739E-001 9.962691069E-001 9.994664192E-001 7.779783607E-001
 -6.390564294E+000 -1.910242719E-001 1.396279931E+000 7.770401835E-001 2.823005617E-002 2.912794113E+000 7.775528431E-001 9.962827563E-001 9.994683862E-001 7.779663801E-001
 -6.372849778E+000 -1.903805728E-001 1.396303654E+000 7.770224810E-001 2.824050374E-002 2.912840843E+000 7.775354981E-001 9.963060021E-001 9.994716048E-001 7.779465914E-001
 -6.355135271E+000 -1.897366213E-001 1.396327376E+000 7.770047784E-001 2.825094759E-002 2.912887335E+000 7.775182128E-001 9.963293076E-001 9.994747639E-001 7.779267430E-001
 -6.337643133E+000 -1.891005040E-001 1.396353126E+000 7.769855261E-001 2.826130949E-002 2.912938118E+000 7.774993181E-001 9.963547587E-001 9.994783401E-001 7.779051065E-001
 -6.320151496E+000 -1.884641531E-001 1.396386862E+000 7.769601941E-001 2.827169187E-002 2.913006544E+000 7.774744034E-001 9.963887930E-001 9.994833469E-001 7.778762579E-001
 -6.302659868E+000 -1.878275481E-001 1.396420479E+000 7.769349217E-001 2.828207240E-002 2.913074732E+000 7.774494886E-001 9.964228868E-001 9.994883537E-001 7.778474689E-001
 -6.285388387E+000 -1.871987045E-001 1.396455884E+000 7.769082189E-001 2.829236165E-002 2.913146496E+000 7.774232030E-001 9.964587092E-001 9.994936585E-001 7.778170109E-001
 -6.268117557E+000 -1.865696321E-001 1.396497846E+000 7.768763900E-001 2.830266580E-002 2.913232327E+000 7.773917913E-001 9.965015650E-001 9.995001554E-001 7.777805328E-001
 -6.250846735E+000 -1.859403051E-001 1.396539927E+000 7.768445611E-001 2.831296623E-002 2.913317919E+000 7.773603201E-001 9.965444207E-001 9.995065928E-001 7.777440548E-001
 -6.233793551E+000 -1.853186576E-001 1.396583796E+000 7.768116593E-001 2.832317352E-002 2.913406849E+000 7.773278356E-001 9.965887070E-001 9.995131493E-001 7.777064443E-001
 -6.216741137E+000 -1.846967856E-001 1.396634936E+000 7.767744064E-001 2.833341621E-002 2.913508177E+000 7.772909999E-001 9.966390729E-001 9.995201230E-001 7.776641846E-001
 -6.199688731E+000 -1.840746593E-001 1.396685958E+000 7.767372131E-001 2.834365703E-002 2.913609505E+000 7.772541642E-001 9.966894388E-001 9.995270967E-001 7.776219845E-001
 -6.182851915E+000 -1.834601478E-001 1.396738052E+000 7.766992450E-001 2.835379541E-002 2.913712740E+000 7.772166133E-001 9.967408180E-001 9.995342493E-001 7.775787711E-001
 -6.166015962E+000 -1.828454159E-001 1.396794796E+000 7.766575217E-001 2.836398222E-002 2.913826466E+000 7.771753073E-001 9.967973232E-001 9.995422363E-001 7.775312066E-001
 -6.149180018E+000 -1.822304306E-001 1.396851540E+000 7.766158581E-001 2.837416716E-002 2.913939953E+000 7.771340013E-001 9.968538284E-001 9.995502830E-001 7.774837017E-001
 -6.132556275E+000 -1.816229470E-001 1.396908879E+000 7.765737176E-001 2.838424593E-002 2.914054632E+000 7.770922780E-001 9.969108701E-001 9.995583892E-001 7.774356604E-001
 -6.115933466E+000 -1.810152471E-001 1.396970510E+000 7.765286565E-001 2.839437686E-002 2.914177895E+000 7.770476341E-001 9.969721437E-001 9.995670319E-001 7.773842216E-001
 -6.099310666E+000 -1.804072953E-001 1.397032022E+000 7.764836550E-001 2.840450965E-002 2.914300919E+000 7.770029902E-001 9.970333576E-001 9.995756745E-001 7.773328424E-001
 -6.082896887E+000 -1.798067403E-001 1.397093892E+000 7.764384151E-001 2.841453068E-002 2.914424419E+000 7.769581676E-001 9.970947504E-001 9.995843768E-001 7.772812247E-001
 -6.066484088E+000 -1.792059726E-001 1.397159338E+000 7.763908505E-001 2.842462249E-002 2.914554834E+000 7.769109607E-001 9.971594810E-001 9.995933175E-001 7.772270441E-001
 -6.050071298E+000 -1.786049551E-001 1.397224903E+000 7.763432860E-001 2.843471803E-002 2.914685011E+000 7.768638134E-001 9.972241521E-001 9.996022582E-001 7.771729231E-001
 -6.033865551E+000 -1.780112734E-001 1.397289991E+000 7.762958407E-001 2.844469436E-002 2.914814949E+000 7.768167853E-001 9.972886443E-001 9.996113181E-001 7.771188021E-001
 -6.017660813E+000 -1.774173826E-001 1.397356272E+000 7.762465477E-001 2.845475078E-002 2.914949179E+000 7.767679095E-001 9.973555207E-001 9.996211529E-001 7.770622969E-001
 -6.001456084E+000 -1.768232445E-001 1.397422552E+000 7.761972547E-001 2.846481092E-002 2.915083170E+000 7.767190337E-001 9.974223971E-001 9.996309280E-001 7.770057917E-001
 -5.985455000E+000 -1.762363297E-001 1.397488475E+000 7.761483788E-001 2.847474627E-002 2.915216446E+000 7.766705155E-001 9.974887967E-001 9.996406436E-001 7.769497037E-001
 -5.969454938E+000 -1.756492092E-001 1.397556186E+000 7.760981321E-001 2.848476171E-002 2.915353298E+000 7.766206861E-001 9.975570440E-001 9.996505976E-001 7.768921256E-001
 -5.953454884E+000 -1.750618445E-001 1.397623897E+000 7.760479450E-001 2.849478461E-002 2.915490389E+000 7.765709162E-001 9.976252913E-001 9.996606112E-001 7.768345475E-001
 -5.937658036E+000 -1.744816995E-001 1.397691131E+000 7.759982347E-001 2.850467712E-002 2.915626049E+000 7.765215635E-001 9.976928234E-001 9.996704459E-001 7.767775655E-001
 -5.921862211E+000 -1.739013522E-001 1.397760272E+000 7.759475112E-001 2.851466462E-002 2.915764332E+000 7.764712572E-001 9.977616668E-001 9.996801615E-001 7.767196298E-001
 -5.906066394E+000 -1.733207638E-001 1.397829413E+000 7.758967876E-001 2.852465957E-002 2.915902615E+000 7.764209509E-001 9.978304505E-001 9.996899366E-001 7.766617537E-001
 -5.890470415E+000 -1.727472838E-001 1.397897720E+000 7.758466601E-001 2.853452042E-002 2.916039228E+000 7.763712406E-001 9.978984594E-001 9.996995926E-001 7.766045928E-001
 -5.874875448E+000 -1.721736045E-001 1.397966504E+000 7.757960558E-001 2.854449861E-002 2.916177034E+000 7.763210535E-001 9.979670644E-001 9.997093678E-001 7.765467763E-001
 -5.859280490E+000 -1.715996873E-001 1.398035407E+000 7.757455111E-001 2.855448797E-002 2.916314840E+000 7.762708664E-001 9.980356693E-001 9.997190237E-001 7.764890194E-001
 -5.843685540E+000 -1.710255323E-001 1.398104191E+000 7.756949067E-001 2.856446616E-002 2.916452646E+000 7.762206793E-001 9.981043339E-001 9.997287989E-001 7.764312029E-001
 -5.828287565E+000 -1.704583946E-001 1.398172021E+000 7.756447196E-001 2.857442386E-002 2.916588545E+000 7.761708498E-001 9.981721640E-001 9.997385740E-001 7.763738036E-001
 -5.812890586E+000 -1.698910591E-001 1.398239970E+000 7.755945325E-001 2.858439460E-002 2.916724443E+000 7.761210799E-001 9.982399344E-001 9.997482300E-001 7.763165236E-001
 -5.797493616E+000 -1.693234893E-001 1.398307681E+000 7.755443454E-001 2.859435603E-002 2.916860342E+000 7.760712504E-001 9.983077049E-001 9.997579455E-001 7.762591839E-001
 -5.782291951E+000 -1.687628880E-001 1.398374677E+000 7.754946947E-001 2.860428393E-002 2.916994333E+000 7.760220170E-001 9.983746409E-001 9.997674823E-001 7.762024999E-001
 -5.767091260E+000 -1.682020918E-001 1.398441553E+000 7.754450440E-001 2.861423232E-002 2.917128086E+000 7.759727836E-001 9.984414577E-001 9.997770190E-001 7.761458755E-001
 -5.751890577E+000 -1.676410652E-001 1.398508430E+000 7.753953934E-001 2.862417325E-002 2.917262077E+000 7.759235501E-001 9.985083342E-001 9.997865558E-001 7.760891914E-001
 -5.736882100E+000 -1.670869050E-001 1.398574591E+000 7.753463984E-001 2.863408811E-002 2.917394400E+000 7.758749723E-001 9.985744357E-001 9.997960329E-001 7.760332823E-001
 -5.721874571E+000 -1.665325525E-001 1.398640513E+000 7.752975225E-001 2.864404395E-002 2.917526960E+000 7.758264542E-001 9.986405373E-001 9.998055696E-001 7.759773135E-001
 -5.706867050E+000 -1.659779728E-001 1.398706555E+000 7.752485871E-001 2.865399048E-002 2.917659283E+000 7.757779360E-001 9.987066984E-001 9.998151064E-001 7.759214044E-001
 -5.692050132E+000 -1.654302125E-001 1.398771644E+000 7.752001882E-001 2.866388671E-002 2.917789459E+000 7.757299542E-001 9.987716675E-001 9.998243451E-001 7.758662701E-001
 -5.677234138E+000 -1.648822626E-001 1.398836493E+000 7.751519084E-001 2.867382765E-002 2.917919159E+000 7.756820917E-001 9.988365769E-001 9.998336434E-001 7.758111358E-001
 -5.662418152E+000 -1.643340889E-001 1.398901463E+000 7.751036286E-001 2.868376672E-002 2.918049097E+000 7.756342292E-001 9.989014864E-001 9.998429418E-001 7.757560015E-001
 -5.647789802E+000 -1.637926371E-001 1.398965240E+000 7.750559449E-001 2.869363315E-002 2.918177605E+000 7.755869627E-001 9.989657402E-001 9.998522997E-001 7.757014632E-001
 -5.633162351E+000 -1.632509986E-001 1.399029136E+000 7.750083804E-001 2.870355360E-002 2.918306351E+000 7.755397558E-001 9.990299940E-001 9.998615980E-001 7.756470442E-001
 -5.618534908E+000 -1.627091399E-001 1.399093032E+000 7.749607563E-001 2.871347405E-002 2.918435097E+000 7.754925489E-001 9.990942478E-001 9.998709559E-001 7.755926251E-001
 -5.604093495E+000 -1.621739557E-001 1.399156094E+000 7.749136686E-001 2.872331254E-002 2.918562174E+000 7.754458189E-001 9.991577864E-001 9.998801947E-001 7.755387425E-001
 -5.589652960E+000 -1.616385874E-001 1.399219036E+000 7.748665810E-001 2.873322926E-002 2.918689728E+000 7.753991485E-001 9.992214441E-001 9.998896122E-001 7.754847407E-001
 -5.575212433E+000 -1.611030020E-001 1.399281979E+000 7.748194337E-001 2.874314599E-002 2.918817043E+000 7.753524184E-001 9.992851615E-001 9.998989701E-001 7.754307389E-001
 -5.560955019E+000 -1.605739945E-001 1.399344563E+000 7.747727036E-001 2.875296585E-002 2.918941975E+000 7.753060460E-001 9.993477464E-001 9.999079108E-001 7.753774524E-001
 -5.546698467E+000 -1.600448053E-001 1.399407387E+000 7.747257948E-001 2.876288444E-002 2.919066668E+000 7.752594948E-001 9.994102716E-001 9.999167919E-001 7.753240466E-001
 -5.532441923E+000 -1.595154019E-001 1.399470091E+000 7.746788859E-001 2.877280675E-002 2.919191360E+000 7.752130032E-001 9.994727969E-001 9.999256134E-001 7.752707005E-001
 -5.518366941E+000 -1.589925299E-001 1.399532318E+000 7.746323943E-001 2.878260985E-002 2.919314384E+000 7.751669288E-001 9.995345473E-001 9.999343157E-001 7.752178907E-001
 -5.504292805E+000 -1.584694789E-001 1.399594903E+000 7.745857239E-001 2.879251167E-002 2.919437885E+000 7.751206756E-001 9.995965362E-001 9.999429584E-001 7.751649618E-001
 -5.490218676E+000 -1.579462167E-001 1.399657488E+000 7.745391130E-001 2.880241908E-002 2.919561386E+000 7.750744820E-001 9.996584058E-001 9.999515414E-001 7.751120329E-001
 -5.476323376E+000 -1.574293956E-001 1.399719477E+000 7.744928598E-001 2.881219797E-002 2.919683933E+000 7.750286460E-001 9.997198582E-001 9.999601841E-001 7.750595212E-001
 -5.462428909E+000 -1.569123981E-001 1.399781823E+000 7.744461894E-001 2.882208675E-002 2.919808149E+000 7.749823332E-001 9.997821450E-001 9.999690056E-001 7.750063539E-001
 -5.448534450E+000 -1.563951922E-001 1.399844289E+000 7.743995786E-001 2.883199230E-002 2.919932127E+000 7.749360800E-001 9.998443127E-001 9.999777675E-001 7.749533057E-001
 -5.434817206E+000 -1.558843781E-001 1.399905920E+000 7.743533850E-001 2.884175070E-002 2.920055151E+000 7.748903036E-001 9.999058843E-001 9.999865890E-001 7.749007344E-001
 -5.421100788E+000 -1.553733901E-001 1.399968147E+000 7.743063569E-001 2.885163203E-002 2.920180321E+000 7.748436928E-001 9.999687672E-001 9.999957681E-001 7.748469710E-001
 -5.407384376E+000 -1.548621960E-001 1.400030375E+000 7.742593884E-001 2.886153944E-002 2.920305490E+000 7.747970819E-001 1.000031590E+000 1.000004888E+000 7.747932673E-001
 -5.393667973E+000 -1.543507959E-001 1.400092602E+000 7.742123604E-001 2.887142263E-002 2.920430660E+000 7.747504711E-001 1.000094414E+000 1.000014067E+000 7.747395039E-001
 -5.380126096E+000 -1.538456993E-001 1.400155544E+000 7.741649747E-001 2.888129093E-002 2.920556307E+000 7.747035027E-001 1.000157475E+000 1.000023127E+000 7.746855617E-001
 -5.366585047E+000 -1.533404297E-001 1.400218368E+000 7.741176486E-001 2.889120020E-002 2.920681953E+000 7.746565938E-001 1.000220537E+000 1.000032306E+000 7.746316195E-001
 -5.353044006E+000 -1.528349563E-001 1.400281310E+000 7.740703225E-001 2.890109271E-002 2.920807600E+000 7.746096253E-001 1.000283718E+000 1.000041366E+000 7.745776176E-001
 -5.339675931E+000 -1.523357386E-001 1.400344491E+000 7.740226388E-001 2.891092934E-002 2.920933485E+000 7.745623589E-001 1.000346899E+000 1.000050426E+000 7.745233774E-001
 -5.326308681E+000 -1.518363503E-001 1.400408030E+000 7.739748955E-001 2.892084233E-002 2.921059370E+000 7.745150328E-001 1.000410199E+000 1.000059485E+000 7.744690180E-001
 -5.312941438E+000 -1.513367604E-001 1.400471449E+000 7.739270926E-001 2.893074416E-002 2.921185732E+000 7.744676471E-001 1.000473619E+000 1.000068545E+000 7.744145989E-001
 -5.299744356E+000 -1.508433316E-001 1.400535464E+000 7.738791108E-001 2.894054726E-002 2.921312809E+000 7.744200826E-001 1.000537515E+000 1.000077486E+000 7.743600607E-001
 -5.286548095E+000 -1.503497346E-001 1.400600314E+000 7.738308907E-001 2.895046957E-002 2.921440840E+000 7.743722200E-001 1.000601649E+000 1.000086427E+000 7.743053436E-001
 -5.273351841E+000 -1.498559380E-001 1.400665045E+000 7.737826705E-001 2.896038815E-002 2.921568632E+000 7.743244171E-001 1.000665903E+000 1.000095367E+000 7.742505670E-001
 -5.260323187E+000 -1.493682164E-001 1.400729895E+000 7.737342715E-001 2.897017822E-002 2.921697140E+000 7.742764354E-001 1.000730276E+000 1.000104308E+000 7.741956115E-001
 -5.247295352E+000 -1.488803288E-001 1.400795460E+000 7.736852765E-001 2.898011357E-002 2.921827078E+000 7.742278576E-001 1.000795484E+000 1.000113606E+000 7.741398811E-001
 -5.234267524E+000 -1.483922432E-001 1.400860786E+000 7.736363411E-001 2.899006382E-002 2.921957254E+000 7.741792798E-001 1.000860691E+000 1.000122786E+000 7.740842104E-001
 -5.221407112E+000 -1.479102352E-001 1.400925994E+000 7.735874653E-001 2.899985202E-002 2.922086477E+000 7.741308212E-001 1.000925660E+000 1.000131965E+000 7.740286589E-001
 -5.208547519E+000 -1.474280632E-001 1.400991321E+000 7.735376358E-001 2.900979482E-002 2.922218084E+000 7.740814090E-001 1.000991821E+000 1.000141740E+000 7.739717364E-001
 -5.195687934E+000 -1.469456948E-001 1.401056647E+000 7.734878659E-001 2.901977114E-002 2.922349215E+000 7.740319967E-001 1.001057863E+000 1.000151515E+000 7.739148736E-001
 -5.182992008E+000 -1.464692726E-001 1.401121378E+000 7.734385133E-001 2.902956679E-002 2.922479391E+000 7.739830613E-001 1.001123428E+000 1.000161052E+000 7.738584876E-001
 -5.170296902E+000 -1.459926883E-001 1.401188016E+000 7.733879685E-001 2.903952263E-002 2.922612906E+000 7.739329338E-001 1.001190543E+000 1.000170827E+000 7.738007903E-001
 -5.157601803E+000 -1.455159092E-001 1.401254654E+000 7.733376026E-001 2.904953994E-002 2.922745943E+000 7.738829255E-001 1.001257539E+000 1.000180483E+000 7.737433314E-001
 -5.144906711E+000 -1.450389352E-001 1.401321292E+000 7.732870579E-001 2.905950509E-002 2.922879457E+000 7.738328576E-001 1.001324773E+000 1.000190258E+000 7.736856341E-001
 -5.132374898E+000 -1.445679037E-001 1.401389003E+000 7.732359171E-001 2.906944044E-002 2.923013687E+000 7.737820745E-001 1.001392365E+000 1.000199914E+000 7.736274600E-001
 -5.119843914E+000 -1.440967102E-001 1.401456952E+000 7.731847167E-001 2.907949127E-002 2.923148155E+000 7.737312913E-001 1.001459956E+000 1.000209451E+000 7.735693455E-001
 -5.107312938E+000 -1.436253233E-001 1.401525021E+000 7.731334567E-001 2.908950485E-002 2.923282623E+000 7.736804485E-001 1.001527667E+000 1.000218987E+000 7.735111117E-001
 -5.094941552E+000 -1.431597492E-001 1.401593566E+000 7.730818391E-001 2.909942716E-002 2.923418283E+000 7.736292481E-001 1.001595855E+000 1.000228524E+000 7.734525204E-001
 -5.082570995E+000 -1.426940149E-001 1.401662946E+000 7.730299234E-001 2.910952829E-002 2.923554659E+000 7.735778093E-001 1.001664519E+000 1.000238061E+000 7.733937502E-001
 -5.070200444E+000 -1.422280881E-001 1.401732206E+000 7.729780078E-001 2.911962010E-002 2.923691034E+000 7.735263109E-001 1.001733065E+000 1.000247598E+000 7.733349204E-001
 -5.057989425E+000 -1.417679807E-001 1.401801229E+000 7.729259729E-001 2.912955359E-002 2.923827648E+000 7.734746933E-001 1.001801968E+000 1.000257254E+000 7.732757330E-001
 -5.045779234E+000 -1.413077149E-001 1.401870489E+000 7.728732824E-001 2.913969196E-002 2.923966885E+000 7.734224200E-001 1.001871943E+000 1.000267625E+000 7.732155919E-001
 -5.033569049E+000 -1.408472574E-001 1.401939511E+000 7.728207111E-001 2.914987132E-002 2.924105883E+000 7.733702660E-001 1.001941919E+000 1.000277877E+000 7.731554508E-001
 -5.021514584E+000 -1.403924843E-001 1.402008414E+000 7.727682590E-001 2.915983088E-002 2.924243689E+000 7.733182311E-001 1.002011299E+000 1.000287890E+000 7.730956674E-001
 -5.009460945E+000 -1.399375543E-001 1.402078390E+000 7.727148533E-001 2.916999348E-002 2.924383402E+000 7.732652426E-001 1.002081871E+000 1.000298142E+000 7.730347514E-001
 -4.997407312E+000 -1.394824340E-001 1.402148128E+000 7.726615667E-001 2.918023057E-002 2.924522877E+000 7.732123733E-001 1.002152205E+000 1.000308394E+000 7.729740143E-001
 -4.985353688E+000 -1.390271236E-001 1.402218103E+000 7.726081014E-001 2.919037268E-002 2.924662590E+000 7.731593251E-001 1.002222657E+000 1.000318646E+000 7.729130983E-001
 -4.973454525E+000 -1.385774600E-001 1.402289152E+000 7.725540996E-001 2.920055389E-002 2.924803257E+000 7.731057405E-001 1.002293706E+000 1.000328779E+000 7.728517056E-001
 -4.961556192E+000 -1.381276386E-001 1.402360201E+000 7.725001574E-001 2.921086550E-002 2.924943686E+000 7.730522752E-001 1.002364635E+000 1.000338793E+000 7.727904916E-001
 -4.949657868E+000 -1.376776278E-001 1.402431250E+000 7.724461555E-001 2.922110818E-002 2.925084591E+000 7.729986906E-001 1.002435684E+000 1.000348926E+000 7.727290988E-001
 -4.937912573E+000 -1.372332184E-001 1.402502775E+000 7.723918557E-001 2.923128381E-002 2.925225735E+000 7.729447484E-001 1.002507091E+000 1.000358939E+000 7.726674676E-001
 -4.926168104E+000 -1.367886525E-001 1.402574420E+000 7.723374367E-001 2.924167737E-002 2.925367355E+000 7.728907466E-001 1.002578616E+000 1.000369072E+000 7.726055980E-001
 -4.914423644E+000 -1.363438978E-001 1.402646065E+000 7.722829580E-001 2.925204486E-002 2.925509214E+000 7.728367448E-001 1.002650142E+000 1.000379205E+000 7.725437284E-001
 -4.902828712E+000 -1.359046202E-001 1.402718186E+000 7.722284198E-001 2.926225029E-002 2.925650597E+000 7.727826238E-001 1.002721548E+000 1.000389099E+000 7.724819779E-001
 -4.891234604E+000 -1.354651876E-001 1.402791262E+000 7.721733451E-001 2.927269973E-002 2.925792933E+000 7.727280259E-001 1.002793431E+000 1.000398993E+000 7.724198699E-001
 -4.879640502E+000 -1.350255665E-001 1.402864218E+000 7.721183896E-001 2.928321064E-002 2.925934792E+000 7.726734877E-001 1.002865195E+000 1.000408769E+000 7.723578215E-001
 -4.868195692E+000 -1.345914216E-001 1.402936697E+000 7.720636725E-001 2.929344960E-002 2.926076412E+000 7.726191878E-001 1.002936721E+000 1.000418663E+000 7.722959518E-001
 -4.856751700E+000 -1.341571232E-001 1.403009415E+000 7.720081210E-001 2.930393256E-002 2.926220894E+000 7.725640535E-001 1.003009677E+000 1.000429034E+000 7.722327709E-001
 -4.845307714E+000 -1.337226375E-001 1.403082013E+000 7.719526887E-001 2.931453474E-002 2.926364660E+000 7.725090981E-001 1.003082395E+000 1.000439405E+000 7.721698284E-001
 -4.833863737E+000 -1.332879646E-001 1.403154850E+000 7.718970776E-001 2.932500280E-002 2.926509142E+000 7.724539042E-001 1.003155351E+000 1.000449896E+000 7.721065879E-001
 -4.822568106E+000 -1.328587420E-001 1.403226972E+000 7.718411684E-001 2.933549881E-002 2.926654100E+000 7.723984122E-001 1.003228784E+000 1.000460744E+000 7.720427513E-001
 -4.811273293E+000 -1.324293643E-001 1.403298736E+000 7.717853785E-001 2.934620157E-002 2.926799059E+000 7.723430991E-001 1.003302217E+000 1.000471830E+000 7.719789147E-001
 -4.799978489E+000 -1.319997999E-001 1.403370619E+000 7.717294693E-001 2.935681492E-002 2.926944017E+000 7.722876668E-001 1.003375649E+000 1.000482798E+000 7.719150186E-001