TITLE     = ""
VARIABLES = "X"
"Y"
"rho"
"U"
"V"
"E"
"UM"
"P"
"A"
"MA"
ZONE T="Streamtraces"
 STRANDID=0, SOLUTIONTIME=0
 Nodes=6790, Elements=6788, ZONETYPE=FELineSeg
 DATAPACKING=POINT
 DT=(DOUBLE DOUBLE SINGLE SINGLE SINGLE SINGLE SINGLE SINGLE SINGLE SINGLE )
 -7.495933421E+000 -2.455653088E-001 1.399999976E+000 7.745040059E-001 2.772299945E-002 2.920439959E+000 7.750000358E-001 1.000000954E+000 1.000000477E+000 7.749996781E-001
 -7.495930771E+000 -2.455650586E-001 1.399999976E+000 7.745040059E-001 2.772299945E-002 2.920439959E+000 7.750000358E-001 1.000000954E+000 1.000000477E+000 7.749996781E-001
 -7.495923788E+000 -2.455648086E-001 1.399999976E+000 7.745040059E-001 2.772299945E-002 2.920439959E+000 7.750000358E-001 1.000000954E+000 1.000000477E+000 7.749996781E-001
 -7.495909822E+000 -2.455643087E-001 1.399999976E+000 7.745040059E-001 2.772299945E-002 2.920439959E+000 7.750000358E-001 1.000000954E+000 1.000000477E+000 7.749996781E-001
 -7.495853959E+000 -2.455623091E-001 1.399999976E+000 7.745040059E-001 2.772299945E-002 2.920439959E+000 7.750000358E-001 1.000000954E+000 1.000000477E+000 7.749996781E-001
 -7.495630505E+000 -2.455543107E-001 1.399999976E+000 7.745040059E-001 2.772299945E-002 2.920439959E+000 7.750000358E-001 1.000000954E+000 1.000000477E+000 7.749996781E-001
 -7.495183598E+000 -2.455383139E-001 1.399999976E+000 7.745040059E-001 2.772299945E-002 2.920439959E+000 7.750000358E-001 1.000000954E+000 1.000000477E+000 7.749996781E-001
 -7.494289782E+000 -2.455063202E-001 1.399999976E+000 7.745040059E-001 2.772299945E-002 2.920439959E+000 7.750000358E-001 1.000000954E+000 1.000000477E+000 7.749996781E-001
 -7.490714521E+000 -2.453783454E-001 1.399999976E+000 7.745040059E-001 2.772299945E-002 2.920439959E+000 7.750000358E-001 1.000000954E+000 1.000000477E+000 7.749996781E-001
 -7.483563999E+000 -2.451223959E-001 1.399999976E+000 7.745040059E-001 2.772299945E-002 2.920439959E+000 7.750000358E-001 1.000000954E+000 1.000000477E+000 7.749996781E-001
 -7.469262954E+000 -2.446104969E-001 1.399999976E+000 7.745040059E-001 2.772299945E-002 2.920439959E+000 7.750000358E-001 1.000000954E+000 1.000000477E+000 7.749996781E-001
 -7.440660864E+000 -2.435866988E-001 1.399999976E+000 7.745040059E-001 2.772299945E-002 2.920439959E+000 7.750000358E-001 1.000000954E+000 1.000000477E+000 7.749996781E-001
 -7.412058774E+000 -2.425629007E-001 1.399999976E+000 7.745040059E-001 2.772299945E-002 2.920439959E+000 7.750000358E-001 1.000000954E+000 1.000000477E+000 7.749996781E-001
 -7.383456685E+000 -2.415391026E-001 1.399999976E+000 7.745040059E-001 2.772299945E-002 2.920439959E+000 7.750000358E-001 1.000000954E+000 1.000000477E+000 7.749996781E-001
 -7.354854595E+000 -2.405153045E-001 1.399999976E+000 7.745040059E-001 2.772299945E-002 2.920439959E+000 7.750000358E-001 1.000000954E+000 1.000000477E+000 7.749996781E-001
 -7.326847435E+000 -2.395128017E-001 1.399999976E+000 7.745040059E-001 2.772299945E-002 2.920439959E+000 7.750000358E-001 1.000000954E+000 1.000000477E+000 7.749996781E-001
 -7.298840275E+000 -2.385102988E-001 1.399999976E+000 7.745040059E-001 2.772299945E-002 2.920439959E+000 7.750000358E-001 1.000000954E+000 1.000000477E+000 7.749996781E-001
 -7.270833115E+000 -2.375077959E-001 1.399999976E+000 7.745040059E-001 2.772299945E-002 2.920439959E+000 7.750000358E-001 1.000000954E+000 1.000000477E+000 7.749996781E-001
 -7.242825955E+000 -2.365052931E-001 1.399999976E+000 7.745040059E-001 2.772299945E-002 2.920439959E+000 7.750000358E-001 1.000000954E+000 1.000000477E+000 7.749996781E-001
 -7.214818795E+000 -2.355027902E-001 1.399999976E+000 7.745040059E-001 2.772299945E-002 2.920439959E+000 7.750000358E-001 1.000000954E+000 1.000000477E+000 7.749996781E-001
 -7.187395569E+000 -2.345211890E-001 1.399999976E+000 7.745040059E-001 2.772299945E-002 2.920439959E+000 7.750000358E-001 1.000000954E+000 1.000000477E+000 7.749996781E-001
 -7.159972343E+000 -2.335395878E-001 1.399999976E+000 7.745040059E-001 2.772299945E-002 2.920439959E+000 7.750000358E-001 1.000000954E+000 1.000000477E+000 7.749996781E-001
 -7.132549118E+000 -2.325579866E-001 1.399999976E+000 7.745040059E-001 2.772299945E-002 2.920439959E+000 7.750000358E-001 1.000000954E+000 1.000000477E+000 7.749996781E-001
 -7.105125892E+000 -2.315763854E-001 1.399999976E+000 7.745040059E-001 2.772299945E-002 2.920439959E+000 7.750000358E-001 1.000000954E+000 1.000000477E+000 7.749996781E-001
 -7.077702666E+000 -2.305947841E-001 1.399999976E+000 7.745040059E-001 2.772299945E-002 2.920439959E+000 7.750000358E-001 1.000000954E+000 1.000000477E+000 7.749996781E-001
 -7.050852870E+000 -2.296337086E-001 1.399999976E+000 7.745040059E-001 2.772299945E-002 2.920439959E+000 7.750000358E-001 1.000000954E+000 1.000000477E+000 7.749996781E-001
 -7.024003074E+000 -2.286726330E-001 1.399999976E+000 7.745040059E-001 2.772299945E-002 2.920439959E+000 7.750000358E-001 1.000000954E+000 1.000000477E+000 7.749996781E-001
 -6.997153278E+000 -2.277115574E-001 1.399999976E+000 7.745040059E-001 2.772299945E-002 2.920439959E+000 7.750000358E-001 1.000000954E+000 1.000000477E+000 7.749996781E-001
 -6.970303482E+000 -2.267504819E-001 1.399999976E+000 7.745040059E-001 2.772299945E-002 2.920439959E+000 7.750000358E-001 1.000000954E+000 1.000000477E+000 7.749996781E-001
 -6.943453686E+000 -2.257894063E-001 1.399999976E+000 7.745040059E-001 2.772299945E-002 2.920439959E+000 7.750000358E-001 1.000000954E+000 1.000000477E+000 7.749996781E-001
 -6.917163009E+000 -2.248483441E-001 1.399999976E+000 7.745040059E-001 2.772299945E-002 2.920439959E+000 7.750000358E-001 1.000000954E+000 1.000000477E+000 7.749996781E-001
 -6.890872332E+000 -2.239072819E-001 1.399999976E+000 7.745040059E-001 2.772299945E-002 2.920439959E+000 7.750000358E-001 1.000000954E+000 1.000000477E+000 7.749996781E-001
 -6.864581655E+000 -2.229662198E-001 1.399999976E+000 7.745040059E-001 2.772299945E-002 2.920439959E+000 7.750000358E-001 1.000000954E+000 1.000000477E+000 7.749996781E-001
 -6.838290978E+000 -2.220251576E-001 1.399999976E+000 7.745040059E-001 2.772299945E-002 2.920439959E+000 7.750000358E-001 1.000000954E+000 1.000000477E+000 7.749996781E-001
 -6.812000302E+000 -2.210840954E-001 1.399999976E+000 7.745040059E-001 2.772299945E-002 2.920439959E+000 7.750000358E-001 1.000000954E+000 1.000000477E+000 7.749996781E-001
 -6.786258491E+000 -2.201626797E-001 1.399999976E+000 7.745040059E-001 2.772299945E-002 2.920439959E+000 7.750000358E-001 1.000000954E+000 1.000000477E+000 7.749996781E-001
 -6.760516680E+000 -2.192412639E-001 1.399999976E+000 7.745040059E-001 2.772299945E-002 2.920439959E+000 7.750000358E-001 1.000000954E+000 1.000000477E+000 7.749996781E-001
 -6.734774869E+000 -2.183198481E-001 1.399999976E+000 7.745040059E-001 2.772299945E-002 2.920439959E+000 7.750000358E-001 1.000000954E+000 1.000000477E+000 7.749996781E-001
 -6.709033059E+000 -2.173984324E-001 1.399999976E+000 7.745040059E-001 2.772299945E-002 2.920439959E+000 7.750000358E-001 1.000000954E+000 1.000000477E+000 7.749996781E-001
 -6.683291248E+000 -2.164770166E-001 1.399999976E+000 7.745040059E-001 2.772299945E-002 2.920439959E+000 7.750000358E-001 1.000000954E+000 1.000000477E+000 7.749996781E-001
 -6.657549437E+000 -2.155556008E-001 1.399999976E+000 7.745040059E-001 2.772299945E-002 2.920439959E+000 7.750000358E-001 1.000000954E+000 1.000000477E+000 7.749996781E-001
 -6.632345300E+000 -2.146534308E-001 1.399999976E+000 7.745040059E-001 2.772299945E-002 2.920439959E+000 7.750000358E-001 1.000000954E+000 1.000000477E+000 7.749996781E-001
 -6.607141162E+000 -2.137512608E-001 1.399999976E+000 7.745040059E-001 2.772299945E-002 2.920439959E+000 7.750000358E-001 1.000000954E+000 1.000000477E+000 7.749996781E-001
 -6.581937025E+000 -2.128490908E-001 1.399999976E+000 7.745040059E-001 2.772299945E-002 2.920439959E+000 7.750000358E-001 1.000000954E+000 1.000000477E+000 7.749996781E-001
 -6.556732888E+000 -2.119469208E-001 1.399999976E+000 7.745040059E-001 2.772299945E-002 2.920439959E+000 7.750000358E-001 1.000000954E+000 1.000000477E+000 7.749996781E-001
 -6.531528750E+000 -2.110447508E-001 1.399999976E+000 7.745040059E-001 2.772299945E-002 2.920439959E+000 7.750000358E-001 1.000000954E+000 1.000000477E+000 7.749996781E-001
 -6.506851910E+000 -2.101614551E-001 1.399999976E+000 7.745040059E-001 2.772299945E-002 2.920439959E+000 7.750000358E-001 1.000000954E+000 1.000000477E+000 7.749996781E-001
 -6.482175070E+000 -2.092781595E-001 1.399999976E+000 7.745040059E-001 2.772299945E-002 2.920439959E+000 7.750000358E-001 1.000000954E+000 1.000000477E+000 7.749996781E-001
 -6.457498230E+000 -2.083948638E-001 1.399999976E+000 7.745040059E-001 2.772299945E-002 2.920439959E+000 7.750000358E-001 1.000000954E+000 1.000000477E+000 7.749996781E-001
 -6.432821390E+000 -2.075115682E-001 1.399999976E+000 7.745040059E-001 2.772299945E-002 2.920439959E+000 7.750000358E-001 1.000000954E+000 1.000000477E+000 7.749996781E-001
 -6.408144550E+000 -2.066282725E-001 1.399999976E+000 7.745040059E-001 2.772299945E-002 2.920439959E+000 7.750000358E-001 1.000000954E+000 1.000000477E+000 7.749996781E-001
 -6.383982762E+000 -2.057634129E-001 1.399999976E+000 7.745040059E-001 2.772299945E-002 2.920439959E+000 7.750000358E-001 1.000000954E+000 1.000000477E+000 7.749996781E-001
 -6.359820973E+000 -2.048985532E-001 1.399999976E+000 7.745040059E-001 2.772299945E-002 2.920439959E+000 7.750000358E-001 1.000000954E+000 1.000000477E+000 7.749996781E-001
 -6.335659184E+000 -2.040336936E-001 1.399999976E+000 7.745040059E-001 2.772299945E-002 2.920439959E+000 7.750000358E-001 1.000000954E+000 1.000000477E+000 7.749996781E-001
 -6.311497395E+000 -2.031688339E-001 1.399999976E+000 7.745040059E-001 2.772299945E-002 2.920439959E+000 7.750000358E-001 1.000000954E+000 1.000000477E+000 7.749996781E-001
 -6.287335606E+000 -2.023039743E-001 1.399999976E+000 7.745040059E-001 2.772299945E-002 2.920439959E+000 7.750000358E-001 1.000000954E+000 1.000000477E+000 7.749996781E-001
 -6.263679112E+000 -2.014572014E-001 1.399999976E+000 7.745040059E-001 2.772299945E-002 2.920439959E+000 7.750000358E-001 1.000000954E+000 1.000000477E+000 7.749996781E-001
 -6.240022618E+000 -2.006104286E-001 1.399999976E+000 7.745040059E-001 2.772299945E-002 2.920439959E+000 7.750000358E-001 1.000000954E+000 1.000000477E+000 7.749996781E-001
 -6.216366125E+000 -1.997636557E-001 1.399999976E+000 7.745040059E-001 2.772299945E-002 2.920439959E+000 7.750000358E-001 1.000000954E+000 1.000000477E+000 7.749996781E-001
 -6.192709631E+000 -1.989168829E-001 1.399999976E+000 7.745040059E-001 2.772299945E-002 2.920439959E+000 7.750000358E-001 1.000000954E+000 1.000000477E+000 7.749996781E-001
 -6.169053137E+000 -1.980701100E-001 1.399999976E+000 7.745040059E-001 2.772299945E-002 2.920439959E+000 7.750000358E-001 1.000000954E+000 1.000000477E+000 7.749996781E-001
 -6.145892315E+000 -1.972410795E-001 1.399999976E+000 7.745040059E-001 2.772299945E-002 2.920439959E+000 7.750000358E-001 1.000000954E+000 1.000000477E+000 7.749996781E-001
 -6.122731493E+000 -1.964120490E-001 1.399999976E+000 7.745040059E-001 2.772299945E-002 2.920439959E+000 7.750000358E-001 1.000000954E+000 1.000000477E+000 7.749996781E-001
 -6.099570670E+000 -1.955830184E-001 1.399999976E+000 7.745040059E-001 2.772299945E-002 2.920439959E+000 7.750000358E-001 1.000000954E+000 1.000000477E+000 7.749996781E-001
 -6.076409848E+000 -1.947539879E-001 1.399999976E+000 7.745040059E-001 2.772299945E-002 2.920439959E+000 7.750000358E-001 1.000000954E+000 1.000000477E+000 7.749996781E-001
 -6.053249026E+000 -1.939249574E-001 1.399999976E+000 7.745040059E-001 2.772299945E-002 2.920439959E+000 7.750000358E-001 1.000000954E+000 1.000000477E+000 7.749996781E-001
 -6.030088203E+000 -1.930959269E-001 1.399999976E+000 7.745040059E-001 2.772299945E-002 2.920439959E+000 7.750000358E-001 1.000000954E+000 1.000000477E+000 7.749996781E-001
 -6.007412174E+000 -1.922842493E-001 1.399999976E+000 7.745040059E-001 2.772299945E-002 2.920439959E+000 7.750000358E-001 1.000000954E+000 1.000000477E+000 7.749996781E-001
 -5.984736145E+000 -1.914725717E-001 1.399999976E+000 7.745040059E-001 2.772299945E-002 2.920439959E+000 7.750000358E-001 1.000000954E+000 1.000000477E+000 7.749996781E-001
 -5.962060116E+000 -1.906608941E-001 1.399999976E+000 7.745040059E-001 2.772299945E-002 2.920439959E+000 7.750000358E-001 1.000000954E+000 1.000000477E+000 7.749996781E-001
 -5.939384087E+000 -1.898492165E-001 1.399999976E+000 7.745040059E-001 2.772299945E-002 2.920439959E+000 7.750000358E-001 1.000000954E+000 1.000000477E+000 7.749996781E-001
 -5.916708057E+000 -1.890375389E-001 1.399999976E+000 7.745040059E-001 2.772299945E-002 2.920439959E+000 7.750000358E-001 1.000000954E+000 1.000000477E+000 7.749996781E-001
 -5.894507382E+000 -1.882428764E-001 1.399999976E+000 7.745040059E-001 2.772299945E-002 2.920439959E+000 7.750000358E-001 1.000000954E+000 1.000000477E+000 7.749996781E-001
 -5.872306706E+000 -1.874482139E-001 1.399999976E+000 7.745040059E-001 2.772299945E-002 2.920439959E+000 7.750000358E-001 1.000000954E+000 1.000000477E+000 7.749996781E-001
 -5.850106031E+000 -1.866535513E-001 1.399999976E+000 7.745040059E-001 2.772299945E-002 2.920439959E+000 7.750000358E-001 1.000000954E+000 1.000000477E+000 7.749996781E-001
 -5.827905355E+000 -1.858588888E-001 1.399999976E+000 7.745040059E-001 2.772299945E-002 2.920439959E+000 7.750000358E-001 1.000000954E+000 1.000000477E+000 7.749996781E-001
 -5.805704680E+000 -1.850642263E-001 1.399999976E+000 7.745040059E-001 2.772299945E-002 2.920439959E+000 7.750000358E-001 1.000000954E+000 1.000000477E+000 7.749996781E-001
 -5.783968856E+000 -1.842862028E-001 1.399999976E+000 7.745040059E-001 2.772299945E-002 2.920439959E+000 7.750000358E-001 1.000000954E+000 1.000000477E+000 7.749996781E-001
 -5.762233031E+000 -1.835081794E-001 1.399999976E+000 7.745040059E-001 2.772299945E-002 2.920439959E+000 7.750000358E-001 1.000000954E+000 1.000000477E+000 7.749996781E-001
 -5.740497207E+000 -1.827301560E-001 1.399999976E+000 7.745040059E-001 2.772299945E-002 2.920439959E+000 7.750000358E-001 1.000000954E+000 1.000000477E+000 7.749996781E-001
 -5.718761383E+000 -1.819521326E-001 1.399999976E+000 7.745040059E-001 2.772299945E-002 2.920439959E+000 7.750000358E-001 1.000000954E+000 1.000000477E+000 7.749996781E-001
 -5.697025559E+000 -1.811741092E-001 1.399999976E+000 7.745040059E-001 2.772299945E-002 2.920439959E+000 7.750000358E-001 1.000000954E+000 1.000000477E+000 7.749996781E-001
 -5.675746777E+000 -1.804124455E-001 1.399999976E+000 7.745040059E-001 2.772299945E-002 2.920439959E+000 7.750000358E-001 1.000000954E+000 1.000000477E+000 7.749996781E-001
 -5.654467996E+000 -1.796507817E-001 1.399999976E+000 7.745040059E-001 2.772299945E-002 2.920439959E+000 7.750000358E-001 1.000000954E+000 1.000000477E+000 7.749996781E-001
 -5.633189214E+000 -1.788891179E-001 1.399999976E+000 7.745040059E-001 2.772299945E-002 2.920439959E+000 7.750000358E-001 1.000000954E+000 1.000000477E+000 7.749996781E-001
 -5.611910433E+000 -1.781274541E-001 1.399999976E+000 7.745040059E-001 2.772299945E-002 2.920439959E+000 7.750000358E-001 1.000000954E+000 1.000000477E+000 7.749996781E-001
 -5.590631651E+000 -1.773657903E-001 1.399999976E+000 7.745040059E-001 2.772299945E-002 2.920439959E+000 7.750000358E-001 1.000000954E+000 1.000000477E+000 7.749996781E-001
 -5.569799345E+000 -1.766201079E-001 1.399999976E+000 7.745040059E-001 2.772299945E-002 2.920439959E+000 7.750000358E-001 1.000000954E+000 1.000000477E+000 7.749996781E-001
 -5.548967038E+000 -1.758744255E-001 1.399999976E+000 7.745040059E-001 2.772299945E-002 2.920439959E+000 7.750000358E-001 1.000000954E+000 1.000000477E+000 7.749996781E-001
 -5.528134732E+000 -1.751287431E-001 1.399999976E+000 7.745040059E-001 2.772299945E-002 2.920439959E+000 7.750000358E-001 1.000000954E+000 1.000000477E+000 7.749996781E-001
 -5.507302425E+000 -1.743830606E-001 1.399999976E+000 7.745040059E-001 2.772299945E-002 2.920439959E+000 7.750000358E-001 1.000000954E+000 1.000000477E+000 7.749996781E-001
 -5.486470118E+000 -1.736373782E-001 1.399999976E+000 7.745040059E-001 2.772299945E-002 2.920439959E+000 7.750000358E-001 1.000000954E+000 1.000000477E+000 7.749996781E-001
 -5.465637812E+000 -1.728916958E-001 1.399999976E+000 7.745040059E-001 2.772299945E-002 2.920439959E+000 7.750000358E-001 1.000000954E+000 1.000000477E+000 7.749996781E-001
 -5.445241854E+000 -1.721616323E-001 1.399999976E+000 7.745040059E-001 2.772299945E-002 2.920439959E+000 7.750000358E-001 1.000000954E+000 1.000000477E+000 7.749996781E-001
 -5.424845897E+000 -1.714315688E-001 1.399999976E+000 7.745040059E-001 2.772299945E-002 2.920439959E+000 7.750000358E-001 1.000000954E+000 1.000000477E+000 7.749996781E-001
 -5.404449939E+000 -1.707015052E-001 1.399999976E+000 7.745040059E-001 2.772299945E-002 2.920439959E+000 7.750000358E-001 1.000000954E+000 1.000000477E+000 7.749996781E-001
 -5.384053981E+000 -1.699714417E-001 1.399999976E+000 7.745040059E-001 2.772299945E-002 2.920439959E+000 7.750000358E-001 1.000000954E+000 1.000000477E+000 7.749996781E-001
 -5.363658023E+000 -1.692413782E-001 1.399999976E+000 7.745040059E-001 2.772299945E-002 2.920439959E+000 7.750000358E-001 1.000000954E+000 1.000000477E+000 7.749996781E-001
 -5.343691914E+000 -1.685267009E-001 1.399999976E+000 7.745040059E-001 2.772299945E-002 2.920439959E+000 7.750000358E-001 1.000000954E+000 1.000000477E+000 7.749996781E-001
 -5.323725805E+000 -1.678120236E-001 1.399999976E+000 7.745040059E-001 2.772299945E-002 2.920439959E+000 7.750000358E-001 1.000000954E+000 1.000000477E+000 7.749996781E-001
 -5.303759696E+000 -1.670973463E-001 1.399999976E+000 7.745040059E-001 2.772299945E-002 2.920439959E+000 7.750000358E-001 1.000000954E+000 1.000000477E+000 7.749996781E-001
 -5.283793587E+000 -1.663826690E-001 1.399999976E+000 7.745040059E-001 2.772299945E-002 2.920439959E+000 7.750000358E-001 1.000000954E+000 1.000000477E+000 7.749996781E-001
 -5.263827478E+000 -1.656679917E-001 1.399999976E+000 7.745040059E-001 2.772299945E-002 2.920439959E+000 7.750000358E-001 1.000000954E+000 1.000000477E+000 7.749996781E-001
 -5.244281339E+000 -1.649683470E-001 1.399999976E+000 7.745040059E-001 2.772299945E-002 2.920439959E+000 7.750000358E-001 1.000000954E+000 1.000000477E+000 7.749996781E-001
 -5.224735199E+000 -1.642687023E-001 1.399999976E+000 7.745040059E-001 2.772299945E-002 2.920439959E+000 7.750000358E-001 1.000000954E+000 1.000000477E+000 7.749996781E-001
 -5.205189060E+000 -1.635690576E-001 1.399999976E+000 7.745040059E-001 2.772299945E-002 2.920439959E+000 7.750000358E-001 1.000000954E+000 1.000000477E+000 7.749996781E-001
 -5.185642921E+000 -1.628694130E-001 1.399999976E+000 7.745040059E-001 2.772299945E-002 2.920439959E+000 7.750000358E-001 1.000000954E+000 1.000000477E+000 7.749996781E-001
 -5.166096782E+000 -1.621697683E-001 1.399999976E+000 7.745040059E-001 2.772299945E-002 2.920439959E+000 7.750000358E-001 1.000000954E+000 1.000000477E+000 7.749996781E-001
 -5.146963174E+000 -1.614848900E-001 1.399999976E+000 7.745040059E-001 2.772299945E-002 2.920439959E+000 7.750000358E-001 1.000000954E+000 1.000000477E+000 7.749996781E-001
 -5.127829566E+000 -1.608000117E-001 1.399999976E+000 7.745040059E-001 2.772299945E-002 2.920439959E+000 7.750000358E-001 1.000000954E+000 1.000000477E+000 7.749996781E-001
 -5.108695958E+000 -1.601151333E-001 1.399999976E+000 7.745040059E-001 2.772299945E-002 2.920439959E+000 7.750000358E-001 1.000000954E+000 1.000000477E+000 7.749996781E-001
 -5.089562351E+000 -1.594302550E-001 1.399999976E+000 7.745040059E-001 2.772299945E-002 2.920439959E+000 7.750000358E-001 1.000000954E+000 1.000000477E+000 7.749996781E-001
 -5.070428743E+000 -1.587453767E-001 1.399999976E+000 7.745040059E-001 2.772299945E-002 2.920439959E+000 7.750000358E-001 1.000000954E+000 1.000000477E+000 7.749996781E-001
 -5.051295135E+000 -1.580604984E-001 1.399999976E+000 7.745040059E-001 2.772299945E-002 2.920439959E+000 7.750000358E-001 1.000000954E+000 1.000000477E+000 7.749996781E-001
 -5.032565372E+000 -1.573900755E-001 1.399999976E+000 7.745040059E-001 2.772299945E-002 2.920439959E+000 7.750000358E-001 1.000000954E+000 1.000000477E+000 7.749996781E-001
 -5.013835608E+000 -1.567196526E-001 1.399999976E+000 7.745040059E-001 2.772299945E-002 2.920439959E+000 7.750000358E-001 1.000000954E+000 1.000000477E+000 7.749996781E-001
 -4.995105844E+000 -1.560492297E-001 1.399999976E+000 7.745040059E-001 2.772299945E-002 2.920439959E+000 7.750000358E-001 1.000000954E+000 1.000000477E+000 7.749996781E-001
 -4.976376081E+000 -1.553788068E-001 1.399999976E+000 7.745040059E-001 2.772299945E-002 2.920439959E+000 7.750000358E-001 1.000000954E+000 1.000000477E+000 7.749996781E-001
 -4.957646317E+000 -1.547083839E-001 1.399999976E+000 7.745040059E-001 2.772299945E-002 2.920439959E+000 7.750000358E-001 1.000000954E+000 1.000000477E+000 7.749996781E-001
 -4.939310705E+000 -1.540520694E-001 1.399999976E+000 7.745040059E-001 2.772299945E-002 2.920439959E+000 7.750000358E-001 1.000000954E+000 1.000000477E+000 7.749996781E-001
 -4.920975093E+000 -1.533957550E-001 1.399999976E+000 7.745040059E-001 2.772299945E-002 2.920439959E+000 7.750000358E-001 1.000000954E+000 1.000000477E+000 7.749996781E-001
 -4.902639481E+000 -1.527394405E-001 1.399999976E+000 7.745040059E-001 2.772299945E-002 2.920439959E+000 7.750000358E-001 1.000000954E+000 1.000000477E+000 7.749996781E-001
 -4.884303868E+000 -1.520831261E-001 1.399999976E+000 7.745040059E-001 2.772299945E-002 2.920439959E+000 7.750000358E-001 1.000000954E+000 1.000000477E+000 7.749996781E-001
 -4.865968256E+000 -1.514268117E-001 1.399999976E+000 7.745040059E-001 2.772299945E-002 2.920439959E+000 7.750000358E-001 1.000000954E+000 1.000000477E+000 7.749996781E-001
 -4.848020737E+000 -1.507843888E-001 1.399999976E+000 7.745040059E-001 2.772299945E-002 2.920439959E+000 7.750000358E-001 1.000000954E+000 1.000000477E+000 7.749996781E-001
 -4.830073217E+000 -1.501419659E-001 1.399999976E+000 7.745040059E-001 2.772299945E-002 2.920439959E+000 7.750000358E-001 1.000000954E+000 1.000000477E+000 7.749996781E-001
 -4.812125697E+000 -1.494995431E-001 1.399999976E+000 7.745040059E-001 2.772299945E-002 2.920439959E+000 7.750000358E-001 1.000000954E+000 1.000000477E+000 7.749996781E-001
 -4.794178178E+000 -1.488571202E-001 1.399999976E+000 7.745040059E-001 2.772299945E-002 2.920439959E+000 7.750000358E-001 1.000000954E+000 1.000000477E+000 7.749996781E-001
 -4.776230658E+000 -1.482146974E-001 1.399999976E+000 7.745040059E-001 2.772299945E-002 2.920439959E+000 7.750000358E-001 1.000000954E+000 1.000000477E+000 7.749996781E-001
 -4.758283138E+000 -1.475722745E-001 1.399999976E+000 7.745040059E-001 2.772299945E-002 2.920439959E+000 7.750000358E-001 1.000000954E+000 1.000000477E+000 7.749996781E-001
 -4.740716772E+000 -1.469434948E-001 1.399999976E+000 7.745040059E-001 2.772299945E-002 2.920439959E+000 7.750000358E-001 1.000000954E+000 1.000000477E+000 7.749996781E-001
 -4.723150405E+000 -1.463147152E-001 1.399999976E+000 7.745040059E-001 2.772299945E-002 2.920439959E+000 7.750000358E-001 1.000000954E+000 1.000000477E+000 7.749996781E-001
 -4.705584038E+000 -1.456859355E-001 1.399999976E+000 7.745040059E-001 2.772299945E-002 2.920439959E+000 7.750000358E-001 1.000000954E+000 1.000000477E+000 7.749996781E-001
 -4.688017672E+000 -1.450571558E-001 1.399999976E+000 7.745040059E-001 2.772299945E-002 2.920439959E+000 7.750000358E-001 1.000000954E+000 1.000000477E+000 7.749996781E-001
 -4.670451305E+000 -1.444283761E-001 1.399999976E+000 7.745040059E-001 2.772299945E-002 2.920439959E+000 7.750000358E-001 1.000000954E+000 1.000000477E+000 7.749996781E-001
 -4.653256463E+000 -1.438128950E-001 1.399999976E+000 7.745039463E-001 2.772299945E-002 2.920439959E+000 7.749999762E-001 1.000000954E+000 1.000000477E+000 7.749996185E-001
 -4.636061623E+000 -1.431974139E-001 1.399999976E+000 7.745038271E-001 2.772299945E-002 2.920439959E+000 7.749998569E-001 1.000001073E+000 1.000000477E+000 7.749994993E-001
 -4.618866783E+000 -1.425819326E-001 1.399999976E+000 7.745037079E-001 2.772299945E-002 2.920439959E+000 7.749997377E-001 1.000001073E+000 1.000000596E+000 7.749993801E-001
 -4.601671943E+000 -1.419664513E-001 1.399999976E+000 7.745036483E-001 2.772299945E-002 2.920439959E+000 7.749996781E-001 1.000001073E+000 1.000000596E+000 7.749992609E-001
 -4.584477103E+000 -1.413509699E-001 1.399999976E+000 7.745035291E-001 2.772299945E-002 2.920439959E+000 7.749995589E-001 1.000001192E+000 1.000000596E+000 7.749991417E-001
 -4.567646848E+000 -1.407485386E-001 1.400000334E+000 7.745032907E-001 2.772299200E-002 2.920440435E+000 7.749993205E-001 1.000001431E+000 1.000000596E+000 7.749989033E-001
 -4.550816601E+000 -1.401461076E-001 1.400001287E+000 7.745028138E-001 2.772297338E-002 2.920441389E+000 7.749988437E-001 1.000001907E+000 1.000000477E+000 7.749985456E-001
 -4.533986354E+000 -1.395436767E-001 1.400002241E+000 7.745023370E-001 2.772295289E-002 2.920442343E+000 7.749983668E-001 1.000002384E+000 1.000000358E+000 7.749981284E-001
 -4.517156107E+000 -1.389412458E-001 1.400003195E+000 7.745018601E-001 2.772293426E-002 2.920443296E+000 7.749978900E-001 1.000002861E+000 1.000000238E+000 7.749977112E-001
 -4.500325860E+000 -1.383388149E-001 1.400004148E+000 7.745013833E-001 2.772291563E-002 2.920444250E+000 7.749974132E-001 1.000003338E+000 1.000000119E+000 7.749973536E-001
 -4.483854623E+000 -1.377492347E-001 1.400005579E+000 7.745006084E-001 2.772288583E-002 2.920446157E+000 7.749966383E-001 1.000004292E+000 1.000000119E+000 7.749965787E-001
 -4.467383428E+000 -1.371596560E-001 1.400010228E+000 7.744975090E-001 2.772277407E-002 2.920455456E+000 7.749934793E-001 1.000008821E+000 1.000000715E+000 7.749930024E-001
 -4.450912233E+000 -1.365700773E-001 1.400014997E+000 7.744943500E-001 2.772266418E-002 2.920464993E+000 7.749903798E-001 1.000013351E+000 1.000001311E+000 7.749894261E-001
 -4.434441038E+000 -1.359804986E-001 1.400019765E+000 7.744912505E-001 2.772255242E-002 2.920474529E+000 7.749872804E-001 1.000018001E+000 1.000001907E+000 7.749857903E-001
 -4.417969843E+000 -1.353909198E-001 1.400024533E+000 7.744881511E-001 2.772244066E-002 2.920484066E+000 7.749841213E-001 1.000022531E+000 1.000002503E+000 7.749822140E-001
 -4.401498648E+000 -1.348013411E-001 1.400029182E+000 7.744850516E-001 2.772232890E-002 2.920493364E+000 7.749810219E-001 1.000027180E+000 1.000003099E+000 7.749786377E-001
 -4.385378350E+000 -1.342243225E-001 1.400049567E+000 7.744705081E-001 2.772182226E-002 2.920535088E+000 7.749664783E-001 1.000047565E+000 1.000006080E+000 7.749618292E-001
 -4.369258380E+000 -1.336473153E-001 1.400073290E+000 7.744536400E-001 2.772123367E-002 2.920583248E+000 7.749496102E-001 1.000071406E+000 1.000009537E+000 7.749422789E-001
 -4.353138410E+000 -1.330703078E-001 1.400096893E+000 7.744367719E-001 2.772063762E-002 2.920631409E+000 7.749327421E-001 1.000095129E+000 1.000012994E+000 7.749227285E-001
 -4.337018439E+000 -1.324933001E-001 1.400120497E+000 7.744199038E-001 2.772004530E-002 2.920679808E+000 7.749158740E-001 1.000118971E+000 1.000016451E+000 7.749031186E-001
 -4.320898469E+000 -1.319162921E-001 1.400144219E+000 7.744029760E-001 2.771945670E-002 2.920727968E+000 7.748989463E-001 1.000142694E+000 1.000019908E+000 7.748835683E-001
 -4.305120738E+000 -1.313515339E-001 1.400210023E+000 7.743558884E-001 2.771781199E-002 2.920861721E+000 7.748517990E-001 1.000208735E+000 1.000029325E+000 7.748290896E-001
 -4.289344245E+000 -1.307868189E-001 1.400313854E+000 7.742815614E-001 2.771521732E-002 2.921072483E+000 7.747774720E-001 1.000312924E+000 1.000044346E+000 7.747430801E-001
 -4.273567752E+000 -1.302221028E-001 1.400417805E+000 7.742071748E-001 2.771260217E-002 2.921283245E+000 7.747030258E-001 1.000417113E+000 1.000059366E+000 7.746571302E-001
 -4.257791259E+000 -1.296573859E-001 1.400521636E+000 7.741328478E-001 2.770996466E-002 2.921494246E+000 7.746286392E-001 1.000521302E+000 1.000074267E+000 7.745711207E-001
 -4.242014767E+000 -1.290926681E-001 1.400625467E+000 7.740585208E-001 2.770736814E-002 2.921705008E+000 7.745542526E-001 1.000625372E+000 1.000089288E+000 7.744851708E-001
 -4.226574034E+000 -1.285399671E-001 1.400783777E+000 7.739452720E-001 2.770342492E-002 2.922026157E+000 7.744410038E-001 1.000784159E+000 1.000112057E+000 7.743542790E-001
 -4.211137011E+000 -1.279873950E-001 1.401145577E+000 7.736867666E-001 2.769445442E-002 2.922760248E+000 7.741822600E-001 1.001146674E+000 1.000163913E+000 7.740556002E-001
 -4.195699989E+000 -1.274348173E-001 1.401507378E+000 7.734282017E-001 2.768547647E-002 2.923494339E+000 7.739235759E-001 1.001509190E+000 1.000215769E+000 7.737568617E-001
 -4.180262969E+000 -1.268822369E-001 1.401869178E+000 7.731695771E-001 2.767622285E-002 2.924228668E+000 7.736647725E-001 1.001871943E+000 1.000267744E+000 7.734579444E-001
 -4.164825948E+000 -1.263296537E-001 1.402230859E+000 7.729110718E-001 2.766724490E-002 2.924962759E+000 7.734060884E-001 1.002234459E+000 1.000319600E+000 7.731592655E-001
 -4.149388929E+000 -1.257770650E-001 1.402592659E+000 7.726525068E-001 2.765826508E-002 2.925696611E+000 7.731474042E-001 1.002596974E+000 1.000371456E+000 7.728605270E-001
 -4.134274041E+000 -1.252359964E-001 1.403485417E+000 7.720156908E-001 2.763631754E-002 2.927508831E+000 7.725101709E-001 1.003491879E+000 1.000498891E+000 7.721258402E-001
 -4.119171962E+000 -1.246953693E-001 1.404426813E+000 7.713442445E-001 2.761317976E-002 2.929419518E+000 7.718383074E-001 1.004435658E+000 1.000633240E+000 7.713512182E-001
 -4.104069891E+000 -1.241547317E-001 1.405368567E+000 7.706726193E-001 2.758933231E-002 2.931330919E+000 7.711662650E-001 1.005379558E+000 1.000767589E+000 7.705764174E-001
 -4.088967826E+000 -1.236140867E-001 1.406310081E+000 7.700010538E-001 2.756587230E-002 2.933241844E+000 7.704942822E-001 1.006323457E+000 1.000902057E+000 7.698016763E-001